
     Program PWSCF v.6.4.1 starts on  8Jun2021 at 15:57:59 

     This program is part of the open-source Quantum ESPRESSO suite
     for quantum simulation of materials; please cite
         "P. Giannozzi et al., J. Phys.:Condens. Matter 21 395502 (2009);
         "P. Giannozzi et al., J. Phys.:Condens. Matter 29 465901 (2017);
          URL http://www.quantum-espresso.org", 
     in publications or presentations arising from this work. More details at
     http://www.quantum-espresso.org/quote

     Parallel version (MPI), running on    64 processors

     MPI processes distributed on     2 nodes
     R & G space division:  proc/nbgrp/npool/nimage =      64
     Waiting for input...
     Reading input from standard input

     Current dimensions of program PWSCF are:
     Max number of different atomic species (ntypx) = 10
     Max number of k-points (npk) =  40000
     Max angular momentum in pseudopotentials (lmaxx) =  3
               file N.pbe-n-kjpaw_psl.1.0.0.UPF: wavefunction(s)  2S renormalized
               file C.pbe-n-kjpaw_psl.1.0.0.UPF: wavefunction(s)  2S 2P renormalized
               file C.pbe-n-kjpaw_psl.1.0.0.UPF: wavefunction(s)  2S 2P renormalized
               file C.pbe-n-kjpaw_psl.1.0.0.UPF: wavefunction(s)  2S 2P renormalized

     --------------------------------------------
     Parameters for DFT-D3 Dispersion Correction:
     --------------------------------------------
       Reference C6 values for interpolation: 

         atom   Coordination number   C6
         B          0.000           214.36
         B          0.971           150.74
         B          1.944           106.23
         B          2.913            62.89
         B          4.586            56.06
         C1         0.000            98.23
         C1         0.987            86.49
         C1         1.998            58.72
         C1         2.999            51.56
         C1         3.984            36.41
         C2         0.000            98.23
         C2         0.987            86.49
         C2         1.998            58.72
         C2         2.999            51.56
         C2         3.984            36.41
         C3         0.000            98.23
         C3         0.987            86.49
         C3         1.998            58.72
         C3         2.999            51.56
         C3         3.984            36.41
         N          0.000            50.54
         N          0.994            44.25
         N          2.014            39.35
         N          2.990            31.16

       Values used:

         atom   Coordination number  R0_AB[au]  C6      C8
         B          3.325            3.039     62.90   2506.25
         B          3.317            3.039     62.90   2506.44
         B          3.317            3.039     62.90   2506.44
         B          3.325            3.039     62.90   2506.25
         B          3.327            3.039     62.90   2506.21
         B          3.324            3.039     62.90   2506.27
         B          3.326            3.039     62.90   2506.23
         B          3.325            3.039     62.90   2506.26
         B          3.323            3.039     62.90   2506.29
         B          3.303            3.039     62.91   2506.75
         B          3.322            3.039     62.90   2506.33
         B          3.329            3.039     62.90   2506.16
         B          3.325            3.039     62.90   2506.25
         B          3.324            3.039     62.90   2506.27
         B          3.325            3.039     62.90   2506.25
         B          3.327            3.039     62.90   2506.21
         B          3.298            3.039     62.91   2506.88
         B          3.297            3.039     62.91   2506.89
         B          3.336            3.039     62.89   2505.99
         B          3.329            3.039     62.90   2506.16
         B          3.327            3.039     62.90   2506.21
         B          3.323            3.039     62.90   2506.31
         B          3.319            3.039     62.90   2506.40
         B          3.314            3.039     62.90   2506.50
         C2         3.249            2.750     49.42   1429.45
         B          3.297            3.039     62.91   2506.89
         B          3.322            3.039     62.90   2506.33
         B          3.325            3.039     62.90   2506.25
         B          3.321            3.039     62.90   2506.36
         B          3.320            3.039     62.90   2506.38
         B          3.315            3.039     62.90   2506.49
         B          3.314            3.039     62.90   2506.50
         B          3.298            3.039     62.91   2506.88
         B          3.303            3.039     62.91   2506.75
         B          3.317            3.039     62.90   2506.44
         B          3.316            3.039     62.90   2506.45
         B          3.318            3.039     62.90   2506.41
         B          3.320            3.039     62.90   2506.38
         B          3.319            3.039     62.90   2506.40
         B          3.327            3.039     62.90   2506.21
         B          3.323            3.039     62.90   2506.29
         B          3.317            3.039     62.90   2506.44
         B          3.319            3.039     62.90   2506.40
         B          3.316            3.039     62.90   2506.45
         B          3.321            3.039     62.90   2506.36
         B          3.323            3.039     62.90   2506.31
         B          3.325            3.039     62.90   2506.25
         B          3.325            3.039     62.90   2506.26
         B          3.325            3.039     62.90   2506.25
         N          3.129            2.478     31.22    688.74
         N          3.128            2.478     31.22    688.75
         N          3.125            2.478     31.22    688.78
         N          3.128            2.478     31.22    688.75
         N          3.130            2.478     31.22    688.73
         N          3.129            2.478     31.22    688.74
         N          3.129            2.478     31.22    688.75
         N          3.129            2.478     31.22    688.75
         N          3.129            2.478     31.22    688.74
         N          3.125            2.478     31.22    688.79
         N          3.123            2.478     31.22    688.80
         N          3.132            2.478     31.22    688.72
         N          3.130            2.478     31.22    688.74
         N          3.129            2.478     31.22    688.74
         N          3.130            2.478     31.22    688.74
         N          3.129            2.478     31.22    688.74
         N          3.132            2.478     31.22    688.71
         C1         3.192            2.750     50.14   1450.18
         N          3.134            2.478     31.22    688.70
         N          3.132            2.478     31.22    688.72
         N          3.130            2.478     31.22    688.73
         N          3.129            2.478     31.22    688.75
         N          3.127            2.478     31.22    688.76
         N          3.126            2.478     31.22    688.77
         N          3.155            2.478     31.21    688.52
         C3         3.192            2.750     50.14   1450.18
         N          3.123            2.478     31.22    688.80
         N          3.128            2.478     31.22    688.75
         N          3.127            2.478     31.22    688.77
         N          3.127            2.478     31.22    688.76
         N          3.127            2.478     31.22    688.77
         N          3.126            2.478     31.22    688.77
         N          3.132            2.478     31.22    688.71
         N          3.125            2.478     31.22    688.79
         N          3.125            2.478     31.22    688.78
         N          3.126            2.478     31.22    688.77
         N          3.126            2.478     31.22    688.77
         N          3.127            2.478     31.22    688.76
         N          3.127            2.478     31.22    688.76
         N          3.129            2.478     31.22    688.74
         N          3.129            2.478     31.22    688.74
         N          3.128            2.478     31.22    688.75
         N          3.129            2.478     31.22    688.74
         N          3.126            2.478     31.22    688.77
         N          3.127            2.478     31.22    688.77
         N          3.129            2.478     31.22    688.75
         N          3.130            2.478     31.22    688.74
         N          3.129            2.478     31.22    688.75
         N          3.129            2.478     31.22    688.74

         Molecular C6 ( Ry / a.u.^6 ) =    437697.49


     gamma-point specific algorithms are used

     Subspace diagonalization in iterative solution of the eigenvalue problem:
     one sub-group per band group will be used
     scalapack distributed-memory algorithm (size of sub-group:  5*  5 procs)

     Message from routine setup:
     DEPRECATED: symmetry with ibrav=0, use correct ibrav instead
 
     Parallelization info
     --------------------
     sticks:   dense  smooth     PW     G-vecs:    dense   smooth      PW
     Min         189     189     46                19302    19302    2402
     Max         192     192     48                19326    19326    2424
     Sum       12161   12161   3049              1236449  1236449  154641
 


     bravais-lattice index     =            0
     lattice parameter (alat)  =      33.2346  a.u.
     unit-cell volume          =   36182.9937 (a.u.)^3
     number of atoms/cell      =           98
     number of atomic types    =            5
     number of electrons       =       391.00
     number of Kohn-Sham states=          245
     kinetic-energy cutoff     =      40.0000  Ry
     charge density cutoff     =     160.0000  Ry
     convergence threshold     =      1.0E-06
     mixing beta               =       0.7000
     number of iterations used =            8  plain     mixing
     Exchange-correlation      = SLA PW PBX PBC ( 1  4  3  4 0 0)
     Using LIBXC version       =    4   3   4
     nstep                     =           50


     celldm(1)=  33.234611  celldm(2)=   0.000000  celldm(3)=   0.000000
     celldm(4)=   0.000000  celldm(5)=   0.000000  celldm(6)=   0.000000

     crystal axes: (cart. coord. in units of alat)
               a(1) = (   1.000615  -0.000340   0.000000 )  
               a(2) = (  -0.500602   0.866388   0.000000 )  
               a(3) = (   0.000000   0.000000   1.137204 )  

     reciprocal axes: (cart. coord. in units 2 pi/alat)
               b(1) = (  0.999581  0.577561  0.000000 )  
               b(2) = (  0.000392  1.154443  0.000000 )  
               b(3) = (  0.000000  0.000000  0.879350 )  


     PseudoPot. # 1 for B  read from file:
     ./pseudo/B.pbe-n-kjpaw_psl.1.0.0.UPF
     MD5 check sum: 8c825a5969375aca5c2c6ad5945b3059
     Pseudo is Projector augmented-wave + core cor, Zval =  3.0
     Generated using "atomic" code by A. Dal Corso v.6.3
     Shape of augmentation charge: PSQ
     Using radial grid of 1059 points,  4 beta functions with: 
                l(1) =   0
                l(2) =   0
                l(3) =   1
                l(4) =   1
     Q(r) pseudized with 0 coefficients 


     PseudoPot. # 2 for N  read from file:
     ./pseudo/N.pbe-n-kjpaw_psl.1.0.0.UPF
     MD5 check sum: 14c48229446f9f2d411169a3abcbc3fa
     Pseudo is Projector augmented-wave + core cor, Zval =  5.0
     Generated using "atomic" code by A. Dal Corso v.6.3
     Shape of augmentation charge: PSQ
     Using radial grid of 1085 points,  4 beta functions with: 
                l(1) =   0
                l(2) =   0
                l(3) =   1
                l(4) =   1
     Q(r) pseudized with 0 coefficients 


     PseudoPot. # 3 for C  read from file:
     ./pseudo/C.pbe-n-kjpaw_psl.1.0.0.UPF
     MD5 check sum: 5f16ad9a65e90284d1d834d4ab3b0f7d
     Pseudo is Projector augmented-wave + core cor, Zval =  4.0
     Generated using "atomic" code by A. Dal Corso v.6.3
     Shape of augmentation charge: PSQ
     Using radial grid of 1073 points,  4 beta functions with: 
                l(1) =   0
                l(2) =   0
                l(3) =   1
                l(4) =   1
     Q(r) pseudized with 0 coefficients 


     PseudoPot. # 4 for C  read from file:
     ./pseudo/C.pbe-n-kjpaw_psl.1.0.0.UPF
     MD5 check sum: 5f16ad9a65e90284d1d834d4ab3b0f7d
     Pseudo is Projector augmented-wave + core cor, Zval =  4.0
     Generated using "atomic" code by A. Dal Corso v.6.3
     Shape of augmentation charge: PSQ
     Using radial grid of 1073 points,  4 beta functions with: 
                l(1) =   0
                l(2) =   0
                l(3) =   1
                l(4) =   1
     Q(r) pseudized with 0 coefficients 


     PseudoPot. # 5 for C  read from file:
     ./pseudo/C.pbe-n-kjpaw_psl.1.0.0.UPF
     MD5 check sum: 5f16ad9a65e90284d1d834d4ab3b0f7d
     Pseudo is Projector augmented-wave + core cor, Zval =  4.0
     Generated using "atomic" code by A. Dal Corso v.6.3
     Shape of augmentation charge: PSQ
     Using radial grid of 1073 points,  4 beta functions with: 
                l(1) =   0
                l(2) =   0
                l(3) =   1
                l(4) =   1
     Q(r) pseudized with 0 coefficients 


     atomic species   valence    mass     pseudopotential
        B              3.00    10.00000     B ( 1.00)
        N              5.00    14.00000     N ( 1.00)
        C1             4.00    12.00000     C ( 1.00)
        C2             4.00    12.00000     C ( 1.00)
        C3             4.00    12.00000     C ( 1.00)

     Starting magnetic structure 
     atomic species   magnetization
        B            0.000
        N            0.000
        C1           1.000
        C2           0.000
        C3           0.000

      2 Sym. Ops. (no inversion) found



   Cartesian axes

     site n.     atom                  positions (alat units)
         1           B   tau(   1) = (  -0.0000660   0.0821824   0.5686018  )
         2           B   tau(   2) = (  -0.0714332   0.2062278   0.5686018  )
         3           B   tau(   3) = (  -0.1430694   0.3300929   0.5686018  )
         4           B   tau(   4) = (  -0.2149073   0.4537321   0.5686018  )
         5           B   tau(   5) = (  -0.2861469   0.5775386   0.5686018  )
         6           B   tau(   6) = (  -0.3574467   0.7014189   0.5686018  )
         7           B   tau(   7) = (  -0.4290529   0.8250794   0.5686018  )
         8           B   tau(   8) = (   0.1428556   0.0818272   0.5686018  )
         9           B   tau(   9) = (   0.0711914   0.2053505   0.5686018  )
        10           B   tau(  10) = (   0.0002723   0.3301172   0.5686018  )
        11           B   tau(  11) = (  -0.0724382   0.4539437   0.5686018  )
        12           B   tau(  12) = (  -0.1440900   0.5777090   0.5686018  )
        13           B   tau(  13) = (  -0.2148593   0.7014148   0.5686018  )
        14           B   tau(  14) = (  -0.2861565   0.8248969   0.5686018  )
        15           B   tau(  15) = (   0.2861975   0.0817848   0.5686018  )
        16           B   tau(  16) = (   0.2148136   0.2045197   0.5686018  )
        17           B   tau(  17) = (   0.1436266   0.3271713   0.5686018  )
        18           B   tau(  18) = (   0.0697120   0.4561623   0.5686018  )
        19           B   tau(  19) = (  -0.0025083   0.5788140   0.5686018  )
        20           B   tau(  20) = (  -0.0723422   0.7019798   0.5686018  )
        21           B   tau(  21) = (  -0.1432231   0.8250897   0.5686018  )
        22           B   tau(  22) = (   0.4289406   0.0823720   0.5686018  )
        23           B   tau(  23) = (   0.3574141   0.2061072   0.5686018  )
        24           B   tau(  24) = (   0.2853616   0.3296453   0.5686018  )
        25           C2  tau(  25) = (   0.2153010   0.4530615   0.5686018  )
        26           B   tau(  26) = (   0.1398209   0.5775954   0.5686018  )
        27           B   tau(  27) = (   0.0706675   0.7018102   0.5686018  )
        28           B   tau(  28) = (  -0.0003837   0.8252976   0.5686018  )
        29           B   tau(  29) = (   0.5717100   0.0822769   0.5686018  )
        30           B   tau(  30) = (   0.5002914   0.2060768   0.5686018  )
        31           B   tau(  31) = (   0.4286873   0.3298630   0.5686018  )
        32           B   tau(  32) = (   0.3572130   0.4540956   0.5686018  )
        33           B   tau(  33) = (   0.2884884   0.5780789   0.5686018  )
        34           B   tau(  34) = (   0.2142596   0.7007543   0.5686018  )
        35           B   tau(  35) = (   0.1426098   0.8249038   0.5686018  )
        36           B   tau(  36) = (   0.7146785   0.0822054   0.5686018  )
        37           B   tau(  37) = (   0.6431429   0.2060470   0.5686018  )
        38           B   tau(  38) = (   0.5716913   0.3297452   0.5686018  )
        39           B   tau(  39) = (   0.5002264   0.4534654   0.5686018  )
        40           B   tau(  40) = (   0.4303010   0.5777548   0.5686018  )
        41           B   tau(  41) = (   0.3577704   0.7017198   0.5686018  )
        42           B   tau(  42) = (   0.2856983   0.8247976   0.5686018  )
        43           B   tau(  43) = (   0.8577567   0.0821396   0.5686018  )
        44           B   tau(  44) = (   0.7861606   0.2060161   0.5686018  )
        45           B   tau(  45) = (   0.7146144   0.3297948   0.5686018  )
        46           B   tau(  46) = (   0.6431474   0.4533892   0.5686018  )
        47           B   tau(  47) = (   0.5722843   0.5773020   0.5686018  )
        48           B   tau(  48) = (   0.5005768   0.7014184   0.5686018  )
        49           B   tau(  49) = (   0.4288084   0.8250144   0.5686018  )
        50           N   tau(  50) = (   0.0713915   0.0409688   0.5686018  )
        51           N   tau(  51) = (  -0.0002412   0.1645038   0.5686018  )
        52           N   tau(  52) = (  -0.0713428   0.2888886   0.5686018  )
        53           N   tau(  53) = (  -0.1435817   0.4125049   0.5686018  )
        54           N   tau(  54) = (  -0.2151128   0.5362073   0.5686018  )
        55           N   tau(  55) = (  -0.2861724   0.6600717   0.5686018  )
        56           N   tau(  56) = (  -0.3576020   0.7838273   0.5686018  )
        57           N   tau(  57) = (   0.2145060   0.0408740   0.5686018  )
        58           N   tau(  58) = (   0.1429089   0.1641795   0.5686018  )
        59           N   tau(  59) = (   0.0713764   0.2875788   0.5686018  )
        60           N   tau(  60) = (  -0.0006993   0.4130374   0.5686018  )
        61           N   tau(  61) = (  -0.0731057   0.5365362   0.5686018  )
        62           N   tau(  62) = (  -0.1436283   0.6602896   0.5686018  )
        63           N   tau(  63) = (  -0.2147117   0.7838453   0.5686018  )
        64           N   tau(  64) = (   0.3575953   0.0409936   0.5686018  )
        65           N   tau(  65) = (   0.2863483   0.1641171   0.5686018  )
        66           N   tau(  66) = (   0.2150084   0.2867506   0.5686018  )
        67           C1  tau(  67) = (   0.1458317   0.4134179   0.5686018  )
        68           N   tau(  68) = (   0.0680088   0.5381009   0.5686018  )
        69           N   tau(  69) = (  -0.0011933   0.6610920   0.5686018  )
        70           N   tau(  70) = (  -0.0719120   0.7842381   0.5686018  )
        71           N   tau(  71) = (   0.5002888   0.0412659   0.5686018  )
        72           N   tau(  72) = (   0.4288460   0.1649269   0.5686018  )
        73           N   tau(  73) = (   0.3571338   0.2888645   0.5686018  )
        74           N   tau(  74) = (   0.2850764   0.4127768   0.5686018  )
        75           C3  tau(  75) = (   0.2148988   0.5330455   0.5686018  )
        76           N   tau(  76) = (   0.1419630   0.6601357   0.5686018  )
        77           N   tau(  77) = (   0.0709830   0.7841414   0.5686018  )
        78           N   tau(  78) = (   0.6432158   0.0410186   0.5686018  )
        79           N   tau(  79) = (   0.5717217   0.1647962   0.5686018  )
        80           N   tau(  80) = (   0.5001538   0.2886018   0.5686018  )
        81           N   tau(  81) = (   0.4284163   0.4123296   0.5686018  )
        82           N   tau(  82) = (   0.3591844   0.5364706   0.5686018  )
        83           N   tau(  83) = (   0.2866511   0.6604456   0.5686018  )
        84           N   tau(  84) = (   0.2141571   0.7833889   0.5686018  )
        85           N   tau(  85) = (   0.7862000   0.0409467   0.5686018  )
        86           N   tau(  86) = (   0.7146532   0.1647605   0.5686018  )
        87           N   tau(  87) = (   0.6431565   0.2885250   0.5686018  )
        88           N   tau(  88) = (   0.5716054   0.4121937   0.5686018  )
        89           N   tau(  89) = (   0.5010577   0.5360052   0.5686018  )
        90           N   tau(  90) = (   0.4292840   0.6601961   0.5686018  )
        91           N   tau(  91) = (   0.3574282   0.7840054   0.5686018  )
        92           N   tau(  92) = (   0.9291643   0.0409124   0.5686018  )
        93           N   tau(  93) = (   0.8576524   0.1647060   0.5686018  )
        94           N   tau(  94) = (   0.7860980   0.2884980   0.5686018  )
        95           N   tau(  95) = (   0.7144203   0.4121529   0.5686018  )
        96           N   tau(  96) = (   0.6433094   0.5358652   0.5686018  )
        97           N   tau(  97) = (   0.5718682   0.6598439   0.5686018  )
        98           N   tau(  98) = (   0.5002290   0.7837372   0.5686018  )

     number of k points=     1
                       cart. coord. in units 2pi/alat
        k(    1) = (   0.0000000   0.0000000   0.0000000), wk =   1.0000000

     Dense  grid:   618225 G-vectors     FFT dimensions: ( 135, 135, 160)

     Occupations read from input 

      Spin-up

        1.0000   1.0000   1.0000   1.0000   1.0000   1.0000   1.0000   1.0000
        1.0000   1.0000   1.0000   1.0000   1.0000   1.0000   1.0000   1.0000
        1.0000   1.0000   1.0000   1.0000   1.0000   1.0000   1.0000   1.0000
        1.0000   1.0000   1.0000   1.0000   1.0000   1.0000   1.0000   1.0000
        1.0000   1.0000   1.0000   1.0000   1.0000   1.0000   1.0000   1.0000
        1.0000   1.0000   1.0000   1.0000   1.0000   1.0000   1.0000   1.0000
        1.0000   1.0000   1.0000   1.0000   1.0000   1.0000   1.0000   1.0000
        1.0000   1.0000   1.0000   1.0000   1.0000   1.0000   1.0000   1.0000
        1.0000   1.0000   1.0000   1.0000   1.0000   1.0000   1.0000   1.0000
        1.0000   1.0000   1.0000   1.0000   1.0000   1.0000   1.0000   1.0000
        1.0000   1.0000   1.0000   1.0000   1.0000   1.0000   1.0000   1.0000
        1.0000   1.0000   1.0000   1.0000   1.0000   1.0000   1.0000   1.0000
        1.0000   1.0000   1.0000   1.0000   1.0000   1.0000   1.0000   1.0000
        1.0000   1.0000   1.0000   1.0000   1.0000   1.0000   1.0000   1.0000
        1.0000   1.0000   1.0000   1.0000   1.0000   1.0000   1.0000   1.0000
        1.0000   1.0000   1.0000   1.0000   1.0000   1.0000   1.0000   1.0000
        1.0000   1.0000   1.0000   1.0000   1.0000   1.0000   1.0000   1.0000
        1.0000   1.0000   1.0000   1.0000   1.0000   1.0000   1.0000   1.0000
        1.0000   1.0000   1.0000   1.0000   1.0000   1.0000   1.0000   1.0000
        1.0000   1.0000   1.0000   1.0000   1.0000   1.0000   1.0000   1.0000
        1.0000   1.0000   1.0000   1.0000   1.0000   1.0000   1.0000   1.0000
        1.0000   1.0000   1.0000   1.0000   1.0000   1.0000   1.0000   1.0000
        1.0000   1.0000   1.0000   1.0000   1.0000   1.0000   1.0000   1.0000
        1.0000   1.0000   1.0000   1.0000   1.0000   1.0000   1.0000   1.0000
        1.0000   1.0000   1.0000   1.0000   0.0000   0.0000   0.0000   0.0000
        0.0000   0.0000   0.0000   0.0000   0.0000   0.0000   0.0000   0.0000
        0.0000   0.0000   0.0000   0.0000   0.0000   0.0000   0.0000   0.0000
        0.0000   0.0000   0.0000   0.0000   0.0000   0.0000   0.0000   0.0000
        0.0000   0.0000   0.0000   0.0000   0.0000   0.0000   0.0000   0.0000
        0.0000   0.0000   0.0000   0.0000   0.0000   0.0000   0.0000   0.0000
        0.0000   0.0000   0.0000   0.0000   0.0000

      Spin-down

        1.0000   1.0000   1.0000   1.0000   1.0000   1.0000   1.0000   1.0000
        1.0000   1.0000   1.0000   1.0000   1.0000   1.0000   1.0000   1.0000
        1.0000   1.0000   1.0000   1.0000   1.0000   1.0000   1.0000   1.0000
        1.0000   1.0000   1.0000   1.0000   1.0000   1.0000   1.0000   1.0000
        1.0000   1.0000   1.0000   1.0000   1.0000   1.0000   1.0000   1.0000
        1.0000   1.0000   1.0000   1.0000   1.0000   1.0000   1.0000   1.0000
        1.0000   1.0000   1.0000   1.0000   1.0000   1.0000   1.0000   1.0000
        1.0000   1.0000   1.0000   1.0000   1.0000   1.0000   1.0000   1.0000
        1.0000   1.0000   1.0000   1.0000   1.0000   1.0000   1.0000   1.0000
        1.0000   1.0000   1.0000   1.0000   1.0000   1.0000   1.0000   1.0000
        1.0000   1.0000   1.0000   1.0000   1.0000   1.0000   1.0000   1.0000
        1.0000   1.0000   1.0000   1.0000   1.0000   1.0000   1.0000   1.0000
        1.0000   1.0000   1.0000   1.0000   1.0000   1.0000   1.0000   1.0000
        1.0000   1.0000   1.0000   1.0000   1.0000   1.0000   1.0000   1.0000
        1.0000   1.0000   1.0000   1.0000   1.0000   1.0000   1.0000   1.0000
        1.0000   1.0000   1.0000   1.0000   1.0000   1.0000   1.0000   1.0000
        1.0000   1.0000   1.0000   1.0000   1.0000   1.0000   1.0000   1.0000
        1.0000   1.0000   1.0000   1.0000   1.0000   1.0000   1.0000   1.0000
        1.0000   1.0000   1.0000   1.0000   1.0000   1.0000   1.0000   1.0000
        1.0000   1.0000   1.0000   1.0000   1.0000   1.0000   1.0000   1.0000
        1.0000   1.0000   1.0000   1.0000   1.0000   1.0000   1.0000   1.0000
        1.0000   1.0000   1.0000   1.0000   1.0000   1.0000   1.0000   1.0000
        1.0000   1.0000   1.0000   1.0000   1.0000   1.0000   1.0000   1.0000
        1.0000   1.0000   1.0000   1.0000   1.0000   1.0000   1.0000   1.0000
        1.0000   1.0000   1.0000   0.0000   0.0000   0.0000   0.0000   0.0000
        0.0000   0.0000   0.0000   0.0000   0.0000   0.0000   0.0000   0.0000
        0.0000   0.0000   0.0000   0.0000   0.0000   0.0000   0.0000   0.0000
        0.0000   0.0000   0.0000   0.0000   0.0000   0.0000   0.0000   0.0000
        0.0000   0.0000   0.0000   0.0000   0.0000   0.0000   0.0000   0.0000
        0.0000   0.0000   0.0000   0.0000   0.0000   0.0000   0.0000   0.0000
        0.0000   0.0000   0.0000   0.0000   0.0000

     Estimated max dynamical RAM per process >     122.31 MB

     Estimated total dynamical RAM >       7.64 GB
     Generating pointlists ...
     new r_m :   0.0336 (alat units)  1.1163 (a.u.) for type    1
     new r_m :   0.0332 (alat units)  1.1046 (a.u.) for type    2
     new r_m :   0.0330 (alat units)  1.0965 (a.u.) for type    3
     new r_m :   0.0330 (alat units)  1.0965 (a.u.) for type    4
     new r_m :   0.0330 (alat units)  1.0965 (a.u.) for type    5

     Check: negative core charge=   -0.000006

     Initial potential from superposition of free atoms

     starting charge  390.98597, renormalised to  391.00000

     negative rho (up, down):  5.501E-02 5.959E-02
     Starting wfcs are  392 randomized atomic wfcs
     Checking if some PAW data can be deallocated... 

     total cpu time spent up to now is        9.0 secs

     Self-consistent Calculation

     iteration #  1     ecut=    40.00 Ry     beta= 0.70
     CG style diagonalization
     ethr =  1.00E-02,  avg # of iterations =  3.1

     negative rho (up, down):  3.273E-01 9.953E-03

     total cpu time spent up to now is       49.3 secs

     total energy              =   -1933.43662371 Ry
     Harris-Foulkes estimate   =   -1946.64661689 Ry
     estimated scf accuracy    <      19.99904796 Ry

     total magnetization       =     1.00 Bohr mag/cell
     absolute magnetization    =     1.51 Bohr mag/cell

     iteration #  2     ecut=    40.00 Ry     beta= 0.70
     CG style diagonalization
     ethr =  5.11E-03,  avg # of iterations =  4.0

     negative rho (up, down):  3.630E-01 7.231E-03

     total cpu time spent up to now is       88.9 secs

     total energy              =   -1937.82757741 Ry
     Harris-Foulkes estimate   =   -1943.95347911 Ry
     estimated scf accuracy    <      11.99974073 Ry

     total magnetization       =     1.00 Bohr mag/cell
     absolute magnetization    =     1.37 Bohr mag/cell

     iteration #  3     ecut=    40.00 Ry     beta= 0.70
     CG style diagonalization
     ethr =  3.07E-03,  avg # of iterations =  3.8

     negative rho (up, down):  4.318E-01 6.446E-03

     total cpu time spent up to now is      125.6 secs

     total energy              =   -1940.31667463 Ry
     Harris-Foulkes estimate   =   -1940.50866765 Ry
     estimated scf accuracy    <       0.35031041 Ry

     total magnetization       =     1.00 Bohr mag/cell
     absolute magnetization    =     1.22 Bohr mag/cell

     iteration #  4     ecut=    40.00 Ry     beta= 0.70
     CG style diagonalization
     c_bands:  2 eigenvalues not converged
     ethr =  8.96E-05,  avg # of iterations =  6.4

     negative rho (up, down):  4.606E-01 5.656E-03

     total cpu time spent up to now is      189.5 secs

     total energy              =   -1940.40239809 Ry
     Harris-Foulkes estimate   =   -1940.59369793 Ry
     estimated scf accuracy    <       0.48785024 Ry

     total magnetization       =     1.00 Bohr mag/cell
     absolute magnetization    =     1.19 Bohr mag/cell

     iteration #  5     ecut=    40.00 Ry     beta= 0.70
     CG style diagonalization
     c_bands:  1 eigenvalues not converged
     ethr =  8.96E-05,  avg # of iterations =  3.4

     negative rho (up, down):  4.743E-01 5.341E-03

     total cpu time spent up to now is      221.3 secs

     total energy              =   -1940.47822954 Ry
     Harris-Foulkes estimate   =   -1940.48456582 Ry
     estimated scf accuracy    <       0.01763488 Ry

     total magnetization       =     1.00 Bohr mag/cell
     absolute magnetization    =     1.20 Bohr mag/cell

     iteration #  6     ecut=    40.00 Ry     beta= 0.70
     CG style diagonalization
     c_bands:  2 eigenvalues not converged
     c_bands:  5 eigenvalues not converged
     ethr =  4.51E-06,  avg # of iterations =  4.6

     negative rho (up, down):  4.861E-01 5.373E-03

     total cpu time spent up to now is      268.4 secs

     total energy              =   -1940.48381770 Ry
     Harris-Foulkes estimate   =   -1940.48585077 Ry
     estimated scf accuracy    <       0.00798264 Ry

     total magnetization       =     1.00 Bohr mag/cell
     absolute magnetization    =     1.20 Bohr mag/cell

     iteration #  7     ecut=    40.00 Ry     beta= 0.70
     CG style diagonalization
     c_bands:  4 eigenvalues not converged
     c_bands:  5 eigenvalues not converged
     ethr =  2.04E-06,  avg # of iterations =  4.0

     negative rho (up, down):  4.874E-01 5.423E-03

     total cpu time spent up to now is      308.1 secs

     total energy              =   -1940.48579258 Ry
     Harris-Foulkes estimate   =   -1940.48604665 Ry
     estimated scf accuracy    <       0.00099558 Ry

     total magnetization       =     1.00 Bohr mag/cell
     absolute magnetization    =     1.20 Bohr mag/cell

     iteration #  8     ecut=    40.00 Ry     beta= 0.70
     CG style diagonalization
     c_bands:  3 eigenvalues not converged
     ethr =  2.55E-07,  avg # of iterations =  3.6

     negative rho (up, down):  4.869E-01 5.451E-03

     total cpu time spent up to now is      342.8 secs

     total energy              =   -1940.48591534 Ry
     Harris-Foulkes estimate   =   -1940.48600819 Ry
     estimated scf accuracy    <       0.00033762 Ry

     total magnetization       =     1.00 Bohr mag/cell
     absolute magnetization    =     1.20 Bohr mag/cell

     iteration #  9     ecut=    40.00 Ry     beta= 0.70
     CG style diagonalization
     ethr =  8.63E-08,  avg # of iterations =  3.7

     negative rho (up, down):  4.867E-01 5.485E-03

     total cpu time spent up to now is      378.8 secs

     total energy              =   -1940.48604328 Ry
     Harris-Foulkes estimate   =   -1940.48602151 Ry
     estimated scf accuracy    <       0.00003786 Ry

     total magnetization       =     1.00 Bohr mag/cell
     absolute magnetization    =     1.20 Bohr mag/cell

     iteration # 10     ecut=    40.00 Ry     beta= 0.70
     CG style diagonalization
     ethr =  9.68E-09,  avg # of iterations =  3.8

     negative rho (up, down):  4.866E-01 5.526E-03

     total cpu time spent up to now is      416.2 secs

     total energy              =   -1940.48605297 Ry
     Harris-Foulkes estimate   =   -1940.48606093 Ry
     estimated scf accuracy    <       0.00003882 Ry

     total magnetization       =     1.00 Bohr mag/cell
     absolute magnetization    =     1.20 Bohr mag/cell

     iteration # 11     ecut=    40.00 Ry     beta= 0.70
     CG style diagonalization
     ethr =  9.68E-09,  avg # of iterations =  3.2

     negative rho (up, down):  4.868E-01 5.524E-03

     total cpu time spent up to now is      446.1 secs

     total energy              =   -1940.48605657 Ry
     Harris-Foulkes estimate   =   -1940.48605926 Ry
     estimated scf accuracy    <       0.00000602 Ry

     total magnetization       =     1.00 Bohr mag/cell
     absolute magnetization    =     1.20 Bohr mag/cell

     iteration # 12     ecut=    40.00 Ry     beta= 0.70
     CG style diagonalization
     ethr =  1.54E-09,  avg # of iterations =  3.9

     negative rho (up, down):  4.867E-01 5.528E-03
 
     Magnetic moment per site:
     atom:    1    charge:    0.8503    magn:   -0.0000    constr:    0.0000
     atom:    2    charge:    0.8457    magn:    0.0003    constr:    0.0000
     atom:    3    charge:    0.8471    magn:    0.0007    constr:    0.0000
     atom:    4    charge:    0.8495    magn:   -0.0000    constr:    0.0000
     atom:    5    charge:    0.8522    magn:    0.0000    constr:    0.0000
     atom:    6    charge:    0.8503    magn:    0.0001    constr:    0.0000
     atom:    7    charge:    0.8509    magn:   -0.0000    constr:    0.0000
     atom:    8    charge:    0.8495    magn:    0.0001    constr:    0.0000
     atom:    9    charge:    0.8508    magn:   -0.0003    constr:    0.0000
     atom:   10    charge:    0.8406    magn:    0.0030    constr:    0.0000
     atom:   11    charge:    0.8471    magn:    0.0005    constr:    0.0000
     atom:   12    charge:    0.8532    magn:    0.0001    constr:    0.0000
     atom:   13    charge:    0.8527    magn:   -0.0000    constr:    0.0000
     atom:   14    charge:    0.8503    magn:    0.0001    constr:    0.0000
     atom:   15    charge:    0.8504    magn:   -0.0001    constr:    0.0000
     atom:   16    charge:    0.8539    magn:    0.0001    constr:    0.0000
     atom:   17    charge:    0.8610    magn:    0.0024    constr:    0.0000
     atom:   18    charge:    0.8517    magn:    0.0073    constr:    0.0000
     atom:   19    charge:    0.8609    magn:   -0.0004    constr:    0.0000
     atom:   20    charge:    0.8532    magn:    0.0001    constr:    0.0000
     atom:   21    charge:    0.8522    magn:    0.0000    constr:    0.0000
     atom:   22    charge:    0.8476    magn:    0.0000    constr:    0.0000
     atom:   23    charge:    0.8444    magn:    0.0003    constr:    0.0000
     atom:   24    charge:    0.8438    magn:   -0.0007    constr:    0.0000
     atom:   25    charge:    1.6285    magn:   -0.0264    constr:    0.0000
     atom:   26    charge:    0.8516    magn:    0.0074    constr:    0.0000
     atom:   27    charge:    0.8471    magn:    0.0005    constr:    0.0000
     atom:   28    charge:    0.8495    magn:   -0.0000    constr:    0.0000
     atom:   29    charge:    0.8471    magn:    0.0001    constr:    0.0000
     atom:   30    charge:    0.8484    magn:    0.0000    constr:    0.0000
     atom:   31    charge:    0.8486    magn:   -0.0003    constr:    0.0000
     atom:   32    charge:    0.8437    magn:   -0.0007    constr:    0.0000
     atom:   33    charge:    0.8609    magn:    0.0025    constr:    0.0000
     atom:   34    charge:    0.8406    magn:    0.0030    constr:    0.0000
     atom:   35    charge:    0.8471    magn:    0.0007    constr:    0.0000
     atom:   36    charge:    0.8466    magn:    0.0003    constr:    0.0000
     atom:   37    charge:    0.8465    magn:   -0.0000    constr:    0.0000
     atom:   38    charge:    0.8484    magn:    0.0000    constr:    0.0000
     atom:   39    charge:    0.8444    magn:    0.0003    constr:    0.0000
     atom:   40    charge:    0.8539    magn:    0.0001    constr:    0.0000
     atom:   41    charge:    0.8508    magn:   -0.0003    constr:    0.0000
     atom:   42    charge:    0.8457    magn:    0.0003    constr:    0.0000
     atom:   43    charge:    0.8458    magn:   -0.0000    constr:    0.0000
     atom:   44    charge:    0.8466    magn:    0.0003    constr:    0.0000
     atom:   45    charge:    0.8471    magn:    0.0001    constr:    0.0000
     atom:   46    charge:    0.8476    magn:    0.0000    constr:    0.0000
     atom:   47    charge:    0.8504    magn:   -0.0001    constr:    0.0000
     atom:   48    charge:    0.8495    magn:    0.0001    constr:    0.0000
     atom:   49    charge:    0.8503    magn:   -0.0000    constr:    0.0000
     atom:   50    charge:    2.7549    magn:    0.0005    constr:    0.0000
     atom:   51    charge:    2.7516    magn:   -0.0001    constr:    0.0000
     atom:   52    charge:    2.7456    magn:    0.0029    constr:    0.0000
     atom:   53    charge:    2.7533    magn:    0.0000    constr:    0.0000
     atom:   54    charge:    2.7538    magn:    0.0001    constr:    0.0000
     atom:   55    charge:    2.7511    magn:    0.0000    constr:    0.0000
     atom:   56    charge:    2.7500    magn:   -0.0000    constr:    0.0000
     atom:   57    charge:    2.7507    magn:    0.0003    constr:    0.0000
     atom:   58    charge:    2.7527    magn:    0.0039    constr:    0.0000
     atom:   59    charge:    2.7473    magn:    0.0065    constr:    0.0000
     atom:   60    charge:    2.7434    magn:    0.0124    constr:    0.0000
     atom:   61    charge:    2.7562    magn:    0.0012    constr:    0.0000
     atom:   62    charge:    2.7498    magn:   -0.0001    constr:    0.0000
     atom:   63    charge:    2.7511    magn:    0.0000    constr:    0.0000
     atom:   64    charge:    2.7563    magn:    0.0000    constr:    0.0000
     atom:   65    charge:    2.7559    magn:    0.0003    constr:    0.0000
     atom:   66    charge:    2.7552    magn:    0.0160    constr:    0.0000
     atom:   67    charge:    1.6561    magn:    0.1195    constr:    0.0000
     atom:   68    charge:    2.7621    magn:   -0.0023    constr:    0.0000
     atom:   69    charge:    2.7562    magn:    0.0012    constr:    0.0000
     atom:   70    charge:    2.7539    magn:    0.0001    constr:    0.0000
     atom:   71    charge:    2.7542    magn:    0.0000    constr:    0.0000
     atom:   72    charge:    2.7500    magn:    0.0002    constr:    0.0000
     atom:   73    charge:    2.7477    magn:    0.0013    constr:    0.0000
     atom:   74    charge:    2.7327    magn:   -0.0027    constr:    0.0000
     atom:   75    charge:    1.6561    magn:    0.1189    constr:    0.0000
     atom:   76    charge:    2.7434    magn:    0.0123    constr:    0.0000
     atom:   77    charge:    2.7533    magn:    0.0000    constr:    0.0000
     atom:   78    charge:    2.7523    magn:    0.0001    constr:    0.0000
     atom:   79    charge:    2.7501    magn:   -0.0000    constr:    0.0000
     atom:   80    charge:    2.7487    magn:   -0.0001    constr:    0.0000
     atom:   81    charge:    2.7477    magn:    0.0013    constr:    0.0000
     atom:   82    charge:    2.7552    magn:    0.0159    constr:    0.0000
     atom:   83    charge:    2.7474    magn:    0.0064    constr:    0.0000
     atom:   84    charge:    2.7456    magn:    0.0029    constr:    0.0000
     atom:   85    charge:    2.7495    magn:    0.0004    constr:    0.0000
     atom:   86    charge:    2.7507    magn:   -0.0001    constr:    0.0000
     atom:   87    charge:    2.7501    magn:   -0.0000    constr:    0.0000
     atom:   88    charge:    2.7500    magn:    0.0002    constr:    0.0000
     atom:   89    charge:    2.7559    magn:    0.0003    constr:    0.0000
     atom:   90    charge:    2.7527    magn:    0.0039    constr:    0.0000
     atom:   91    charge:    2.7516    magn:   -0.0001    constr:    0.0000
     atom:   92    charge:    2.7556    magn:   -0.0000    constr:    0.0000
     atom:   93    charge:    2.7495    magn:    0.0004    constr:    0.0000
     atom:   94    charge:    2.7522    magn:    0.0001    constr:    0.0000
     atom:   95    charge:    2.7542    magn:   -0.0000    constr:    0.0000
     atom:   96    charge:    2.7563    magn:    0.0000    constr:    0.0000
     atom:   97    charge:    2.7507    magn:    0.0003    constr:    0.0000
     atom:   98    charge:    2.7549    magn:    0.0005    constr:    0.0000

     total cpu time spent up to now is      483.7 secs

     End of self-consistent calculation

 ------ SPIN UP ------------


          k = 0.0000 0.0000 0.0000 ( 77321 PWs)   bands (ev):

   -21.7570 -21.5440 -21.3706 -21.3615 -21.3432 -21.2906 -21.2386 -20.8231
   -20.6285 -20.6122 -20.6109 -20.5285 -20.5149 -20.3916 -20.2717 -20.2648
   -20.2436 -20.1094 -20.0963 -19.5561 -19.3729 -19.3701 -19.3669 -19.3553
   -19.3545 -19.3457 -19.3453 -19.3139 -19.2960 -19.1433 -19.1355 -19.0017
   -18.9495 -18.9490 -18.9203 -18.7545 -18.7476 -18.5210 -18.5113 -18.5005
   -18.4893 -18.4278 -18.4100 -18.3578 -18.3338 -18.3306 -18.3161 -17.0416
   -15.0746 -13.0956 -12.7435 -12.7379 -12.7269 -12.6931 -12.6872 -12.6205
   -12.5445 -12.5118 -12.5067 -12.4571 -12.3940 -12.1318 -12.0462 -12.0328
   -12.0098 -11.9591 -11.9382 -11.5180 -11.3997 -11.3812 -11.3662 -11.3597
   -11.3479 -11.3394 -11.3361 -11.2947 -11.2818 -11.0997 -11.0278 -10.8511
   -10.6981 -10.6863 -10.6528 -10.6438 -10.4915 -10.0459 -10.0128  -9.9787
    -9.9081  -9.8607  -9.7943  -9.3742  -9.3046  -9.3026  -9.2809  -9.2580
    -9.2518  -9.1965  -9.0263  -8.9049  -8.8906  -8.8719  -8.8715  -8.8617
    -8.8591  -8.8555  -8.8433  -8.8275  -8.8058  -8.8043  -8.7981  -8.7972
    -8.7851  -8.7809  -8.7805  -8.7422  -8.7293  -8.6916  -8.6516  -8.6408
    -8.4574  -8.4469  -8.1704  -8.1622  -8.1611  -8.1135  -8.0664  -7.8963
    -7.8401  -7.8007  -7.7865  -7.7847  -7.7116  -7.7113  -7.5286  -7.4737
    -7.4725  -7.4403  -7.4244  -7.4126  -7.4112  -7.3821  -7.3702  -7.3246
    -7.3185  -7.3137  -7.2934  -7.2567  -7.2289  -7.2018  -7.1983  -7.0207
    -7.0034  -6.9711  -6.9355  -6.7926  -6.6342  -6.5137  -6.2139  -6.1659
    -6.1465  -6.1340  -6.0881  -6.0410  -6.0369  -6.0357  -6.0293  -6.0213
    -6.0156  -6.0147  -5.9917  -5.9742  -5.8754  -5.7927  -5.7922  -5.6760
    -5.4953  -5.4264  -5.4220  -5.4049  -5.3406  -5.2372  -5.0989  -5.0975
    -4.7731  -4.7475  -4.7326  -4.7272  -4.6664  -4.6316  -4.5217  -4.4857
    -4.4843  -4.4767  -4.3451  -3.5487   0.0809   0.1874   0.7096   0.7315
     0.7350   0.7409   0.7602   0.7655   0.7974   0.8181   0.8186   0.8219
     0.8258   0.8409   0.8488   0.8835   0.9043   0.9053   0.9331   0.9439
     0.9785   1.1634   1.2483   1.2494   1.2693   1.2778   1.3132   1.3288
     1.3311   1.3341   1.3441   1.3514   1.3900   1.4407   1.4424   1.4433
     1.4506   1.4532   1.4750   1.8865   2.1098   2.1148   2.1153   2.1307
     2.1352   2.3221   2.3300   2.3389   2.3530

 ------ SPIN DOWN ----------


          k = 0.0000 0.0000 0.0000 ( 77321 PWs)   bands (ev):

   -21.7517 -21.5407 -21.3684 -21.3601 -21.3423 -21.2828 -21.2310 -20.8204
   -20.6247 -20.6082 -20.6059 -20.5239 -20.5110 -20.3905 -20.2652 -20.2589
   -20.2402 -20.0972 -20.0866 -19.5492 -19.3689 -19.3689 -19.3647 -19.3534
   -19.3516 -19.3420 -19.3364 -19.3031 -19.2918 -19.1373 -19.1311 -18.9976
   -18.9456 -18.9441 -18.9160 -18.7445 -18.7385 -18.5144 -18.5078 -18.4952
   -18.4861 -18.4237 -18.4025 -18.3559 -18.3304 -18.3269 -18.3117 -16.8921
   -14.7851 -13.0540 -12.7417 -12.7340 -12.7246 -12.6899 -12.6854 -12.6166
   -12.5425 -12.5078 -12.5030 -12.4415 -12.3855 -12.1264 -12.0443 -12.0301
   -12.0050 -11.9474 -11.9300 -11.5081 -11.3937 -11.3771 -11.3646 -11.3583
   -11.3463 -11.3357 -11.3347 -11.2855 -11.2710 -11.0665 -11.0038 -10.8469
   -10.6962 -10.6845 -10.6429 -10.6387 -10.4785 -10.0417 -10.0084  -9.9733
    -9.8978  -9.8461  -9.7785  -9.3715  -9.2966  -9.2872  -9.2767  -9.2536
    -9.2497  -9.1924  -9.0236  -8.9006  -8.8867  -8.8698  -8.8693  -8.8571
    -8.8515  -8.8411  -8.8406  -8.8258  -8.8026  -8.8011  -8.7951  -8.7931
    -8.7819  -8.7782  -8.7777  -8.7200  -8.7149  -8.6396  -8.6305  -8.6238
    -8.4457  -8.4155  -8.1692  -8.1599  -8.1597  -8.0948  -8.0583  -7.8817
    -7.8253  -7.7914  -7.7774  -7.7738  -7.6902  -7.6769  -7.5222  -7.4722
    -7.4694  -7.4382  -7.4231  -7.4103  -7.4067  -7.3808  -7.3682  -7.3222
    -7.3043  -7.3004  -7.2836  -7.2492  -7.1852  -7.1674  -7.1544  -7.0045
    -7.0016  -6.9702  -6.9178  -6.7653  -6.6130  -6.4866  -6.2020  -6.1628
    -6.1447  -6.1313  -6.0722  -6.0345  -6.0320  -6.0282  -6.0184  -6.0173
    -6.0070  -5.9991  -5.9656  -5.9606  -5.8110  -5.7727  -5.7556  -5.6488
    -5.4835  -5.4173  -5.4100  -5.3964  -5.2685  -5.1835  -5.0372  -5.0213
    -4.7590  -4.7381  -4.7202  -4.7173  -4.6296  -4.6183  -4.5165  -4.4773
    -4.4746  -4.4687  -4.1689  -2.8681   0.1679   0.1893   0.7101   0.7367
     0.7410   0.7521   0.7766   0.7826   0.7960   0.8182   0.8218   0.8228
     0.8256   0.8407   0.8515   0.8892   0.9151   0.9198   0.9376   0.9610
     1.0277   1.1784   1.2588   1.2776   1.2806   1.3163   1.3283   1.3297
     1.3335   1.3405   1.3432   1.3697   1.3989   1.4398   1.4416   1.4424
     1.4494   1.4525   1.4780   1.8872   2.1085   2.1146   2.1174   2.1533
     2.3279   2.3405   2.3426   2.3535   2.3607

     highest occupied, lowest unoccupied level (ev):    -3.5487   -2.8681

!    total energy              =   -1940.48605854 Ry
     Harris-Foulkes estimate   =   -1940.48605871 Ry
     estimated scf accuracy    <       0.00000066 Ry

     total all-electron energy =     -7770.310535 Ry

     The total energy is the sum of the following terms:

     one-electron contribution =  -10659.89446286 Ry
     hartree contribution      =    5415.82330840 Ry
     xc contribution           =    -430.86429517 Ry
     ewald contribution        =    4377.89969890 Ry
     DFT-D3 Dispersion         =      -0.27041057 Ry
     one-center paw contrib.   =    -643.17989722 Ry

     total magnetization       =     1.00 Bohr mag/cell
     absolute magnetization    =     1.20 Bohr mag/cell

     convergence has been achieved in  12 iterations

     negative rho (up, down):  4.867E-01 5.528E-03

     Forces acting on atoms (cartesian axes, Ry/au):

     atom    1 type  1   force =     0.00002811   -0.00042326    0.00000000
     atom    2 type  1   force =     0.00003179   -0.00031407    0.00000000
     atom    3 type  1   force =    -0.00029836    0.00023718    0.00000000
     atom    4 type  1   force =    -0.00005903    0.00048413    0.00000000
     atom    5 type  1   force =     0.00042224   -0.00006262    0.00000000
     atom    6 type  1   force =     0.00028174    0.00021833    0.00000000
     atom    7 type  1   force =    -0.00006267    0.00002429    0.00000000
     atom    8 type  1   force =    -0.00015363   -0.00008408    0.00000000
     atom    9 type  1   force =     0.00002008   -0.00019053    0.00000000
     atom   10 type  1   force =    -0.00031379   -0.00002766    0.00000000
     atom   11 type  1   force =    -0.00069028    0.00011622    0.00000000
     atom   12 type  1   force =    -0.00016491    0.00038742    0.00000000
     atom   13 type  1   force =    -0.00004166    0.00002227    0.00000000
     atom   14 type  1   force =    -0.00005099   -0.00036957    0.00000000
     atom   15 type  1   force =    -0.00011942   -0.00002902    0.00000000
     atom   16 type  1   force =    -0.00000965    0.00019338    0.00000000
     atom   17 type  1   force =     0.00019335   -0.00003682    0.00000000
     atom   18 type  1   force =    -0.00018112    0.00010411    0.00000000
     atom   19 type  1   force =    -0.00049768    0.00029807    0.00000000
     atom   20 type  1   force =    -0.00039669   -0.00005443    0.00000000
     atom   21 type  1   force =     0.00027437   -0.00034220    0.00000000
     atom   22 type  1   force =     0.00031259   -0.00051646    0.00000000
     atom   23 type  1   force =     0.00002019    0.00020974    0.00000000
     atom   24 type  1   force =    -0.00008066    0.00032674    0.00000000
     atom   25 type  4   force =     0.00000185    0.00023164    0.00000000
     atom   26 type  1   force =    -0.00008158    0.00009673    0.00000000
     atom   27 type  1   force =    -0.00040249    0.00052800    0.00000000
     atom   28 type  1   force =    -0.00042514   -0.00020231    0.00000000
     atom   29 type  1   force =     0.00028491   -0.00038978    0.00000000
     atom   30 type  1   force =     0.00020744   -0.00028366    0.00000000
     atom   31 type  1   force =    -0.00019001    0.00014873    0.00000000
     atom   32 type  1   force =    -0.00029582   -0.00002588    0.00000000
     atom   33 type  1   force =     0.00009438   -0.00016391    0.00000000
     atom   34 type  1   force =    -0.00009219    0.00025972    0.00000000
     atom   35 type  1   force =    -0.00033038    0.00012635    0.00000000
     atom   36 type  1   force =     0.00002941   -0.00022750    0.00000000
     atom   37 type  1   force =     0.00052234   -0.00030486    0.00000000
     atom   38 type  1   force =     0.00034598   -0.00003024    0.00000000
     atom   39 type  1   force =    -0.00018947   -0.00012044    0.00000000
     atom   40 type  1   force =    -0.00021906   -0.00010819    0.00000000
     atom   41 type  1   force =     0.00010656    0.00003863    0.00000000
     atom   42 type  1   force =     0.00026316    0.00010493    0.00000000
     atom   43 type  1   force =     0.00018403   -0.00012369    0.00000000
     atom   44 type  1   force =     0.00019819    0.00007017    0.00000000
     atom   45 type  1   force =     0.00045905   -0.00004923    0.00000000
     atom   46 type  1   force =     0.00058812   -0.00000791    0.00000000
     atom   47 type  1   force =    -0.00005292    0.00011412    0.00000000
     atom   48 type  1   force =    -0.00002817    0.00016041    0.00000000
     atom   49 type  1   force =     0.00035930    0.00016649    0.00000000
     atom   50 type  2   force =     0.00036852    0.00030534    0.00000000
     atom   51 type  2   force =     0.00034653   -0.00002859    0.00000000
     atom   52 type  2   force =    -0.00017047   -0.00008824    0.00000000
     atom   53 type  2   force =    -0.00019951   -0.00000062    0.00000000
     atom   54 type  2   force =     0.00028658    0.00000239    0.00000000
     atom   55 type  2   force =    -0.00026808   -0.00033598    0.00000000
     atom   56 type  2   force =    -0.00034752    0.00020383    0.00000000
     atom   57 type  2   force =    -0.00014643    0.00050997    0.00000000
     atom   58 type  2   force =     0.00025235    0.00006193    0.00000000
     atom   59 type  2   force =     0.00005957   -0.00002307    0.00000000
     atom   60 type  2   force =    -0.00040081    0.00003767    0.00000000
     atom   61 type  2   force =    -0.00004206    0.00004582    0.00000000
     atom   62 type  2   force =     0.00016848   -0.00011083    0.00000000
     atom   63 type  2   force =     0.00014966    0.00039714    0.00000000
     atom   64 type  2   force =    -0.00004167    0.00047062    0.00000000
     atom   65 type  2   force =    -0.00005200   -0.00007351    0.00000000
     atom   66 type  2   force =     0.00001287    0.00007691    0.00000000
     atom   67 type  3   force =    -0.00002379    0.00007280    0.00000000
     atom   68 type  2   force =    -0.00016338   -0.00001928    0.00000000
     atom   69 type  2   force =    -0.00009929   -0.00000751    0.00000000
     atom   70 type  2   force =     0.00013239   -0.00024587    0.00000000
     atom   71 type  2   force =     0.00020795    0.00012565    0.00000000
     atom   72 type  2   force =     0.00010344   -0.00015973    0.00000000
     atom   73 type  2   force =     0.00001162    0.00003102    0.00000000
     atom   74 type  2   force =     0.00003492   -0.00011392    0.00000000
     atom   75 type  5   force =    -0.00013809   -0.00026530    0.00000000
     atom   76 type  2   force =    -0.00032189    0.00035969    0.00000000
     atom   77 type  2   force =    -0.00014264    0.00020144    0.00000000
     atom   78 type  2   force =     0.00004789   -0.00026181    0.00000000
     atom   79 type  2   force =    -0.00018052    0.00022217    0.00000000
     atom   80 type  2   force =     0.00041563   -0.00023876    0.00000000
     atom   81 type  2   force =     0.00002731   -0.00009487    0.00000000
     atom   82 type  2   force =     0.00004384   -0.00008960    0.00000000
     atom   83 type  2   force =     0.00011556    0.00007006    0.00000000
     atom   84 type  2   force =     0.00000194    0.00028325    0.00000000
     atom   85 type  2   force =     0.00001387   -0.00022797    0.00000000
     atom   86 type  2   force =     0.00009472   -0.00003962    0.00000000
     atom   87 type  2   force =    -0.00027047    0.00005560    0.00000000
     atom   88 type  2   force =     0.00020969   -0.00001514    0.00000000
     atom   89 type  2   force =     0.00009078    0.00006877    0.00000000
     atom   90 type  2   force =     0.00011602   -0.00022612    0.00000000
     atom   91 type  2   force =     0.00023110   -0.00023795    0.00000000
     atom   92 type  2   force =     0.00014270   -0.00007446    0.00000000
     atom   93 type  2   force =     0.00021340    0.00012817    0.00000000
     atom   94 type  2   force =     0.00027174    0.00009807    0.00000000
     atom   95 type  2   force =     0.00000040   -0.00024872    0.00000000
     atom   96 type  2   force =    -0.00041502   -0.00020601    0.00000000
     atom   97 type  2   force =    -0.00048409   -0.00012582    0.00000000
     atom   98 type  2   force =    -0.00006517   -0.00044850    0.00000000

     Total force =     0.003254     Total SCF correction =     0.001568
     SCF correction compared to forces is large: reduce conv_thr to get better values


     Computing stress (Cartesian axis) and pressure


     negative rho (up, down):  4.867E-01 5.528E-03
          total   stress  (Ry/bohr**3)                   (kbar)     P=   -0.16
   0.00000017  -0.00000007   0.00000000          0.02     -0.01      0.00
  -0.00000007   0.00000007   0.00000000         -0.01      0.01      0.00
   0.00000000   0.00000000  -0.00000355          0.00      0.00     -0.52


     BFGS Geometry Optimization

     number of scf cycles    =   1
     number of bfgs steps    =   0

     enthalpy new            =   -1940.4860585363 Ry

     new trust radius        =       0.0006999970 bohr
     new conv_thr            =       0.0000010000 Ry

     new unit-cell volume =  36183.21080 a.u.^3 (  5361.79858 Ang^3 )
     density =      0.36359 g/cm^3

CELL_PARAMETERS (alat= 33.23461096)
   1.000619342  -0.000341580   0.000000000
  -0.500605488   0.866390836   0.000000000
   0.000000000   0.000000000   1.137203616

ATOMIC_POSITIONS (crystal)
B        0.047392845   0.094860144   0.500000000
B        0.047701362   0.238039398   0.500000000
B        0.047634492   0.381025766   0.500000000
B        0.047247377   0.523740614   0.500000000
B        0.047548334   0.666621237   0.500000000
B        0.047827560   0.809615870   0.500000000
B        0.047659050   0.952340078   0.500000000
B        0.190049881   0.094517888   0.500000000
B        0.189761412   0.237086848   0.500000000
B        0.190925107   0.381100771   0.500000000
B        0.189753586   0.524027925   0.500000000
B        0.189634356   0.666889303   0.500000000
B        0.190339705   0.809660203   0.500000000
B        0.190383687   0.952171710   0.500000000
B        0.333309268   0.094527098   0.500000000
B        0.332849325   0.236197286   0.500000000
B        0.332533047   0.377755704   0.500000000
B        0.333140761   0.526644525   0.500000000
B        0.331783439   0.668217294   0.500000000
B        0.333111417   0.810365635   0.500000000
B        0.333378925   0.952451298   0.500000000
B        0.476336292   0.095244026   0.500000000
B        0.476308202   0.238086491   0.500000000
B        0.475635622   0.380680022   0.500000000
C2       0.476885657   0.523126263   0.500000000
B        0.473358240   0.666859297   0.500000000
B        0.475973271   0.810246100   0.500000000
B        0.476259945   0.952752177   0.500000000
B        0.618992324   0.095194609   0.500000000
B        0.619105133   0.238090207   0.500000000
B        0.619020683   0.380981279   0.500000000
B        0.619321965   0.524366706   0.500000000
B        0.622243519   0.667466743   0.500000000
B        0.618900070   0.809074145   0.500000000
B        0.618974745   0.952365038   0.500000000
B        0.761854842   0.095173677   0.500000000
B        0.761888762   0.238111046   0.500000000
B        0.761909820   0.380895139   0.500000000
B        0.761913105   0.523691940   0.500000000
B        0.763801069   0.667150080   0.500000000
B        0.762910526   0.810237351   0.500000000
B        0.761959454   0.952297774   0.500000000
B        0.904841573   0.095157356   0.500000000
B        0.904825490   0.238144467   0.500000000
B        0.904804728   0.381007763   0.500000000
B        0.904755574   0.523663968   0.500000000
B        0.905472256   0.666690693   0.500000000
B        0.905481082   0.809949600   0.500000000
B        0.905138722   0.952606231   0.500000000
N        0.095039973   0.047334744   0.500000000
N        0.094779799   0.189909200   0.500000000
N        0.095531215   0.333474501   0.500000000
N        0.094719268   0.476157292   0.500000000
N        0.094678422   0.618936718   0.500000000
N        0.095165232   0.761891534   0.500000000
N        0.095249021   0.904751095   0.500000000
N        0.238027850   0.047288528   0.500000000
N        0.237681356   0.189594069   0.500000000
N        0.237442243   0.332020659   0.500000000
N        0.237843916   0.476829289   0.500000000
N        0.236806944   0.619373613   0.500000000
N        0.237792585   0.762206852   0.500000000
N        0.238108205   0.904834640   0.500000000
N        0.381128790   0.047481317   0.500000000
N        0.381013190   0.189573579   0.500000000
N        0.380536103   0.331124319   0.500000000
C1       0.384545298   0.477327244   0.500000000
N        0.378761252   0.621233034   0.500000000
N        0.380625143   0.763192505   0.500000000
N        0.381063187   0.905321703   0.500000000
N        0.523921296   0.047839612   0.500000000
N        0.523922116   0.190561281   0.500000000
N        0.523822054   0.333618779   0.500000000
N        0.523359874   0.476635203   0.500000000
C3       0.522666425   0.615445831   0.500000000
N        0.523168829   0.762157454   0.500000000
N        0.523842050   0.905281619   0.500000000
N        0.666634152   0.047596700   0.500000000
N        0.666660564   0.190479661   0.500000000
N        0.666637903   0.333362216   0.500000000
N        0.666381617   0.476175758   0.500000000
N        0.668878350   0.619462623   0.500000000
N        0.667983433   0.762561800   0.500000000
N        0.666527387   0.904471841   0.500000000
N        0.809516418   0.047570816   0.500000000
N        0.809515328   0.190485356   0.500000000
N        0.809520824   0.333339776   0.500000000
N        0.809439141   0.476077766   0.500000000
N        0.810427556   0.618986373   0.500000000
N        0.810407350   0.762319359   0.500000000
N        0.810092306   0.905221612   0.500000000
N        0.952407593   0.047592582   0.500000000
N        0.952429687   0.190484310   0.500000000
N        0.952403882   0.333366080   0.500000000
N        0.952160327   0.476078522   0.500000000
N        0.952518839   0.618871030   0.500000000
N        0.952712214   0.761972178   0.500000000
N        0.952665877   0.904960651   0.500000000



     Writing output data file C2Cn.save/
     NEW-OLD atomic charge density approx. for the potential
     NEW k-points:
   0.0000000   0.0000000   0.0000000   1.0000000
   0.0000000   0.0000000   0.0000000   1.0000000

     Check: negative core charge=   -0.000006

     negative rho (up, down):  4.867E-01 2.704E-03
     extrapolated charge  391.00235, renormalised to  391.00000

     total cpu time spent up to now is      506.5 secs

     Self-consistent Calculation

     iteration #  1     ecut=    40.00 Ry     beta= 0.70
     CG style diagonalization
     ethr =  1.00E-06,  avg # of iterations =  2.0

     Threshold (ethr) on eigenvalues was too large:
     Diagonalizing with lowered threshold

     CG style diagonalization
     ethr =  6.08E-10,  avg # of iterations = 19.1

     negative rho (up, down):  4.867E-01 5.180E-03

     total cpu time spent up to now is      749.7 secs

     total energy              =   -1940.48606076 Ry
     Harris-Foulkes estimate   =   -1940.42406657 Ry
     estimated scf accuracy    <       0.00000658 Ry

     total magnetization       =     1.00 Bohr mag/cell
     absolute magnetization    =     1.20 Bohr mag/cell

     iteration #  2     ecut=    40.00 Ry     beta= 0.70
     CG style diagonalization
     ethr =  1.68E-09,  avg # of iterations =  3.8

     negative rho (up, down):  4.867E-01 5.279E-03

     total cpu time spent up to now is      786.2 secs

     total energy              =   -1940.48606171 Ry
     Harris-Foulkes estimate   =   -1940.48606621 Ry
     estimated scf accuracy    <       0.00000931 Ry

     total magnetization       =     1.00 Bohr mag/cell
     absolute magnetization    =     1.20 Bohr mag/cell

     iteration #  3     ecut=    40.00 Ry     beta= 0.70
     CG style diagonalization
     ethr =  1.68E-09,  avg # of iterations =  3.4

     negative rho (up, down):  4.867E-01 5.521E-03
 
     Magnetic moment per site:
     atom:    1    charge:    0.8503    magn:   -0.0000    constr:    0.0000
     atom:    2    charge:    0.8457    magn:    0.0003    constr:    0.0000
     atom:    3    charge:    0.8472    magn:    0.0007    constr:    0.0000
     atom:    4    charge:    0.8495    magn:   -0.0000    constr:    0.0000
     atom:    5    charge:    0.8521    magn:    0.0000    constr:    0.0000
     atom:    6    charge:    0.8502    magn:    0.0001    constr:    0.0000
     atom:    7    charge:    0.8509    magn:   -0.0000    constr:    0.0000
     atom:    8    charge:    0.8496    magn:    0.0001    constr:    0.0000
     atom:    9    charge:    0.8508    magn:   -0.0003    constr:    0.0000
     atom:   10    charge:    0.8405    magn:    0.0030    constr:    0.0000
     atom:   11    charge:    0.8471    magn:    0.0005    constr:    0.0000
     atom:   12    charge:    0.8533    magn:    0.0001    constr:    0.0000
     atom:   13    charge:    0.8525    magn:   -0.0000    constr:    0.0000
     atom:   14    charge:    0.8502    magn:    0.0001    constr:    0.0000
     atom:   15    charge:    0.8505    magn:   -0.0001    constr:    0.0000
     atom:   16    charge:    0.8539    magn:    0.0001    constr:    0.0000
     atom:   17    charge:    0.8609    magn:    0.0025    constr:    0.0000
     atom:   18    charge:    0.8516    magn:    0.0074    constr:    0.0000
     atom:   19    charge:    0.8609    magn:   -0.0004    constr:    0.0000
     atom:   20    charge:    0.8533    magn:    0.0001    constr:    0.0000
     atom:   21    charge:    0.8521    magn:    0.0000    constr:    0.0000
     atom:   22    charge:    0.8476    magn:    0.0000    constr:    0.0000
     atom:   23    charge:    0.8443    magn:    0.0003    constr:    0.0000
     atom:   24    charge:    0.8438    magn:   -0.0007    constr:    0.0000
     atom:   25    charge:    1.6285    magn:   -0.0264    constr:    0.0000
     atom:   26    charge:    0.8515    magn:    0.0074    constr:    0.0000
     atom:   27    charge:    0.8472    magn:    0.0005    constr:    0.0000
     atom:   28    charge:    0.8495    magn:   -0.0000    constr:    0.0000
     atom:   29    charge:    0.8471    magn:    0.0001    constr:    0.0000
     atom:   30    charge:    0.8485    magn:    0.0000    constr:    0.0000
     atom:   31    charge:    0.8485    magn:   -0.0003    constr:    0.0000
     atom:   32    charge:    0.8437    magn:   -0.0007    constr:    0.0000
     atom:   33    charge:    0.8609    magn:    0.0025    constr:    0.0000
     atom:   34    charge:    0.8405    magn:    0.0030    constr:    0.0000
     atom:   35    charge:    0.8472    magn:    0.0007    constr:    0.0000
     atom:   36    charge:    0.8465    magn:    0.0003    constr:    0.0000
     atom:   37    charge:    0.8465    magn:   -0.0000    constr:    0.0000
     atom:   38    charge:    0.8485    magn:    0.0000    constr:    0.0000
     atom:   39    charge:    0.8443    magn:    0.0003    constr:    0.0000
     atom:   40    charge:    0.8539    magn:    0.0001    constr:    0.0000
     atom:   41    charge:    0.8508    magn:   -0.0003    constr:    0.0000
     atom:   42    charge:    0.8457    magn:    0.0003    constr:    0.0000
     atom:   43    charge:    0.8457    magn:   -0.0000    constr:    0.0000
     atom:   44    charge:    0.8465    magn:    0.0003    constr:    0.0000
     atom:   45    charge:    0.8471    magn:    0.0001    constr:    0.0000
     atom:   46    charge:    0.8476    magn:    0.0000    constr:    0.0000
     atom:   47    charge:    0.8505    magn:   -0.0001    constr:    0.0000
     atom:   48    charge:    0.8496    magn:    0.0001    constr:    0.0000
     atom:   49    charge:    0.8503    magn:   -0.0000    constr:    0.0000
     atom:   50    charge:    2.7550    magn:    0.0005    constr:    0.0000
     atom:   51    charge:    2.7516    magn:   -0.0001    constr:    0.0000
     atom:   52    charge:    2.7456    magn:    0.0029    constr:    0.0000
     atom:   53    charge:    2.7534    magn:    0.0000    constr:    0.0000
     atom:   54    charge:    2.7540    magn:    0.0001    constr:    0.0000
     atom:   55    charge:    2.7511    magn:    0.0000    constr:    0.0000
     atom:   56    charge:    2.7501    magn:   -0.0000    constr:    0.0000
     atom:   57    charge:    2.7506    magn:    0.0003    constr:    0.0000
     atom:   58    charge:    2.7528    magn:    0.0039    constr:    0.0000
     atom:   59    charge:    2.7472    magn:    0.0065    constr:    0.0000
     atom:   60    charge:    2.7433    magn:    0.0123    constr:    0.0000
     atom:   61    charge:    2.7562    magn:    0.0012    constr:    0.0000
     atom:   62    charge:    2.7500    magn:   -0.0001    constr:    0.0000
     atom:   63    charge:    2.7511    magn:    0.0000    constr:    0.0000
     atom:   64    charge:    2.7563    magn:    0.0000    constr:    0.0000
     atom:   65    charge:    2.7559    magn:    0.0003    constr:    0.0000
     atom:   66    charge:    2.7553    magn:    0.0160    constr:    0.0000
     atom:   67    charge:    1.6558    magn:    0.1194    constr:    0.0000
     atom:   68    charge:    2.7619    magn:   -0.0023    constr:    0.0000
     atom:   69    charge:    2.7563    magn:    0.0012    constr:    0.0000
     atom:   70    charge:    2.7540    magn:    0.0001    constr:    0.0000
     atom:   71    charge:    2.7543    magn:    0.0000    constr:    0.0000
     atom:   72    charge:    2.7499    magn:    0.0002    constr:    0.0000
     atom:   73    charge:    2.7478    magn:    0.0013    constr:    0.0000
     atom:   74    charge:    2.7328    magn:   -0.0027    constr:    0.0000
     atom:   75    charge:    1.6564    magn:    0.1190    constr:    0.0000
     atom:   76    charge:    2.7434    magn:    0.0123    constr:    0.0000
     atom:   77    charge:    2.7534    magn:    0.0000    constr:    0.0000
     atom:   78    charge:    2.7524    magn:    0.0001    constr:    0.0000
     atom:   79    charge:    2.7501    magn:   -0.0000    constr:    0.0000
     atom:   80    charge:    2.7486    magn:   -0.0001    constr:    0.0000
     atom:   81    charge:    2.7478    magn:    0.0013    constr:    0.0000
     atom:   82    charge:    2.7554    magn:    0.0159    constr:    0.0000
     atom:   83    charge:    2.7473    magn:    0.0064    constr:    0.0000
     atom:   84    charge:    2.7456    magn:    0.0029    constr:    0.0000
     atom:   85    charge:    2.7496    magn:    0.0004    constr:    0.0000
     atom:   86    charge:    2.7508    magn:   -0.0001    constr:    0.0000
     atom:   87    charge:    2.7501    magn:   -0.0000    constr:    0.0000
     atom:   88    charge:    2.7499    magn:    0.0002    constr:    0.0000
     atom:   89    charge:    2.7559    magn:    0.0003    constr:    0.0000
     atom:   90    charge:    2.7528    magn:    0.0039    constr:    0.0000
     atom:   91    charge:    2.7516    magn:   -0.0001    constr:    0.0000
     atom:   92    charge:    2.7557    magn:   -0.0000    constr:    0.0000
     atom:   93    charge:    2.7496    magn:    0.0004    constr:    0.0000
     atom:   94    charge:    2.7524    magn:    0.0001    constr:    0.0000
     atom:   95    charge:    2.7543    magn:    0.0000    constr:    0.0000
     atom:   96    charge:    2.7563    magn:    0.0000    constr:    0.0000
     atom:   97    charge:    2.7506    magn:    0.0003    constr:    0.0000
     atom:   98    charge:    2.7550    magn:    0.0005    constr:    0.0000

     total cpu time spent up to now is      818.8 secs

     End of self-consistent calculation

 ------ SPIN UP ------------


          k = 0.0000 0.0000 0.0000 ( 77321 PWs)   bands (ev):

   -21.7570 -21.5450 -21.3705 -21.3620 -21.3447 -21.2909 -21.2381 -20.8232
   -20.6291 -20.6121 -20.6109 -20.5283 -20.5159 -20.3928 -20.2726 -20.2652
   -20.2432 -20.1094 -20.0964 -19.5562 -19.3734 -19.3710 -19.3676 -19.3559
   -19.3539 -19.3460 -19.3458 -19.3140 -19.2966 -19.1429 -19.1355 -19.0016
   -18.9501 -18.9495 -18.9210 -18.7548 -18.7480 -18.5218 -18.5119 -18.5003
   -18.4883 -18.4276 -18.4107 -18.3581 -18.3347 -18.3314 -18.3173 -17.0420
   -15.0742 -13.0951 -12.7438 -12.7385 -12.7262 -12.6938 -12.6874 -12.6217
   -12.5448 -12.5124 -12.5078 -12.4567 -12.3943 -12.1319 -12.0463 -12.0333
   -12.0106 -11.9585 -11.9386 -11.5185 -11.4004 -11.3816 -11.3671 -11.3600
   -11.3483 -11.3393 -11.3364 -11.2946 -11.2820 -11.0998 -11.0278 -10.8506
   -10.6988 -10.6870 -10.6530 -10.6440 -10.4915 -10.0461 -10.0126  -9.9789
    -9.9092  -9.8612  -9.7942  -9.3748  -9.3045  -9.3028  -9.2817  -9.2584
    -9.2517  -9.1973  -9.0270  -8.9054  -8.8912  -8.8725  -8.8717  -8.8621
    -8.8595  -8.8555  -8.8440  -8.8277  -8.8057  -8.8047  -8.7983  -8.7976
    -8.7847  -8.7819  -8.7813  -8.7424  -8.7295  -8.6910  -8.6520  -8.6409
    -8.4574  -8.4467  -8.1704  -8.1629  -8.1621  -8.1137  -8.0671  -7.8967
    -7.8398  -7.8013  -7.7862  -7.7847  -7.7121  -7.7112  -7.5283  -7.4733
    -7.4719  -7.4407  -7.4251  -7.4135  -7.4131  -7.3828  -7.3709  -7.3252
    -7.3192  -7.3139  -7.2931  -7.2570  -7.2292  -7.2021  -7.1982  -7.0213
    -7.0036  -6.9724  -6.9364  -6.7915  -6.6341  -6.5123  -6.2141  -6.1665
    -6.1464  -6.1356  -6.0888  -6.0415  -6.0378  -6.0358  -6.0293  -6.0216
    -6.0164  -6.0146  -5.9917  -5.9746  -5.8754  -5.7935  -5.7927  -5.6760
    -5.4951  -5.4271  -5.4224  -5.4058  -5.3408  -5.2374  -5.0981  -5.0972
    -4.7737  -4.7481  -4.7324  -4.7267  -4.6676  -4.6316  -4.5219  -4.4863
    -4.4853  -4.4779  -4.3449  -3.5481   0.0815   0.1874   0.7098   0.7308
     0.7349   0.7412   0.7608   0.7655   0.7975   0.8175   0.8187   0.8221
     0.8255   0.8406   0.8489   0.8836   0.9041   0.9056   0.9322   0.9430
     0.9781   1.1635   1.2489   1.2493   1.2690   1.2774   1.3122   1.3290
     1.3313   1.3340   1.3441   1.3515   1.3904   1.4408   1.4425   1.4433
     1.4506   1.4533   1.4752   1.8865   2.1097   2.1146   2.1155   2.1307
     2.1352   2.3219   2.3300   2.3385   2.3527

 ------ SPIN DOWN ----------


          k = 0.0000 0.0000 0.0000 ( 77321 PWs)   bands (ev):

   -21.7517 -21.5416 -21.3683 -21.3605 -21.3439 -21.2831 -21.2305 -20.8205
   -20.6252 -20.6081 -20.6058 -20.5237 -20.5119 -20.3917 -20.2660 -20.2592
   -20.2399 -20.0972 -20.0866 -19.5494 -19.3698 -19.3695 -19.3654 -19.3540
   -19.3509 -19.3428 -19.3365 -19.3032 -19.2924 -19.1369 -19.1311 -18.9976
   -18.9462 -18.9446 -18.9167 -18.7447 -18.7389 -18.5153 -18.5084 -18.4950
   -18.4851 -18.4235 -18.4032 -18.3562 -18.3313 -18.3276 -18.3128 -16.8925
   -14.7846 -13.0535 -12.7419 -12.7345 -12.7238 -12.6907 -12.6856 -12.6177
   -12.5429 -12.5084 -12.5041 -12.4411 -12.3858 -12.1265 -12.0444 -12.0306
   -12.0058 -11.9468 -11.9304 -11.5086 -11.3945 -11.3775 -11.3654 -11.3587
   -11.3467 -11.3357 -11.3349 -11.2854 -11.2711 -11.0666 -11.0038 -10.8464
   -10.6969 -10.6851 -10.6432 -10.6389 -10.4785 -10.0419 -10.0082  -9.9734
    -9.8990  -9.8466  -9.7784  -9.3721  -9.2966  -9.2874  -9.2775  -9.2540
    -9.2496  -9.1931  -9.0242  -8.9011  -8.8872  -8.8701  -8.8699  -8.8575
    -8.8515  -8.8413  -8.8412  -8.8260  -8.8030  -8.8010  -8.7953  -8.7936
    -8.7814  -8.7797  -8.7780  -8.7202  -8.7151  -8.6401  -8.6300  -8.6238
    -8.4457  -8.4153  -8.1691  -8.1609  -8.1605  -8.0948  -8.0590  -7.8822
    -7.8250  -7.7919  -7.7774  -7.7737  -7.6901  -7.6775  -7.5219  -7.4718
    -7.4688  -7.4386  -7.4238  -7.4121  -7.4077  -7.3815  -7.3690  -7.3228
    -7.3050  -7.3005  -7.2833  -7.2495  -7.1855  -7.1676  -7.1544  -7.0049
    -7.0017  -6.9715  -6.9189  -6.7642  -6.6130  -6.4850  -6.2022  -6.1634
    -6.1445  -6.1329  -6.0729  -6.0353  -6.0324  -6.0288  -6.0179  -6.0177
    -6.0077  -5.9993  -5.9657  -5.9609  -5.8109  -5.7740  -5.7556  -5.6489
    -5.4834  -5.4179  -5.4104  -5.3973  -5.2689  -5.1837  -5.0366  -5.0207
    -4.7595  -4.7388  -4.7200  -4.7169  -4.6306  -4.6182  -4.5167  -4.4783
    -4.4752  -4.4698  -4.1688  -2.8674   0.1684   0.1892   0.7100   0.7361
     0.7409   0.7521   0.7773   0.7823   0.7959   0.8183   0.8219   0.8222
     0.8252   0.8403   0.8514   0.8890   0.9148   0.9198   0.9368   0.9602
     1.0273   1.1784   1.2586   1.2770   1.2813   1.3162   1.3283   1.3297
     1.3332   1.3401   1.3430   1.3689   1.3989   1.4398   1.4415   1.4422
     1.4493   1.4524   1.4780   1.8871   2.1084   2.1145   2.1173   2.1532
     2.3275   2.3397   2.3422   2.3530   2.3607

     highest occupied, lowest unoccupied level (ev):    -3.5481   -2.8674

!    total energy              =   -1940.48606311 Ry
     Harris-Foulkes estimate   =   -1940.48606392 Ry
     estimated scf accuracy    <       0.00000073 Ry

     total all-electron energy =     -7770.310540 Ry

     The total energy is the sum of the following terms:

     one-electron contribution =  -10659.84307418 Ry
     hartree contribution      =    5415.80305774 Ry
     xc contribution           =    -430.86534169 Ry
     ewald contribution        =    4377.86966879 Ry
     DFT-D3 Dispersion         =      -0.27040930 Ry
     one-center paw contrib.   =    -643.17996447 Ry

     total magnetization       =     1.00 Bohr mag/cell
     absolute magnetization    =     1.20 Bohr mag/cell

     convergence has been achieved in   3 iterations

     negative rho (up, down):  4.867E-01 5.521E-03

     Forces acting on atoms (cartesian axes, Ry/au):

     atom    1 type  1   force =     0.00025660    0.00012357    0.00000000
     atom    2 type  1   force =     0.00028234    0.00000230    0.00000000
     atom    3 type  1   force =     0.00009857    0.00003854    0.00000000
     atom    4 type  1   force =    -0.00006716   -0.00013012    0.00000000
     atom    5 type  1   force =    -0.00029404   -0.00036603    0.00000000
     atom    6 type  1   force =    -0.00043888   -0.00012240    0.00000000
     atom    7 type  1   force =    -0.00018300    0.00013749    0.00000000
     atom    8 type  1   force =     0.00019127    0.00036624    0.00000000
     atom    9 type  1   force =     0.00026085    0.00006550    0.00000000
     atom   10 type  1   force =    -0.00011374   -0.00004231    0.00000000
     atom   11 type  1   force =    -0.00016944   -0.00000188    0.00000000
     atom   12 type  1   force =     0.00023521   -0.00003524    0.00000000
     atom   13 type  1   force =    -0.00007741    0.00004183    0.00000000
     atom   14 type  1   force =    -0.00011365    0.00047857    0.00000000
     atom   15 type  1   force =    -0.00008166    0.00023995    0.00000000
     atom   16 type  1   force =     0.00013493    0.00007043    0.00000000
     atom   17 type  1   force =    -0.00000610   -0.00007701    0.00000000
     atom   18 type  1   force =    -0.00032924   -0.00003931    0.00000000
     atom   19 type  1   force =    -0.00001813   -0.00002827    0.00000000
     atom   20 type  1   force =     0.00009933   -0.00018239    0.00000000
     atom   21 type  1   force =     0.00014816    0.00045337    0.00000000
     atom   22 type  1   force =     0.00004761    0.00016541    0.00000000
     atom   23 type  1   force =     0.00007866   -0.00010039    0.00000000
     atom   24 type  1   force =    -0.00000127   -0.00009150    0.00000000
     atom   25 type  4   force =    -0.00007914   -0.00017441    0.00000000
     atom   26 type  1   force =    -0.00015448    0.00012843    0.00000000
     atom   27 type  1   force =    -0.00021911    0.00018774    0.00000000
     atom   28 type  1   force =     0.00001460    0.00015500    0.00000000
     atom   29 type  1   force =     0.00007836    0.00020127    0.00000000
     atom   30 type  1   force =    -0.00004850   -0.00002258    0.00000000
     atom   31 type  1   force =     0.00028306   -0.00023409    0.00000000
     atom   32 type  1   force =     0.00002501   -0.00014531    0.00000000
     atom   33 type  1   force =    -0.00010125   -0.00008318    0.00000000
     atom   34 type  1   force =    -0.00008042    0.00019081    0.00000000
     atom   35 type  1   force =    -0.00003417   -0.00005457    0.00000000
     atom   36 type  1   force =     0.00007559   -0.00014704    0.00000000
     atom   37 type  1   force =    -0.00011877    0.00008091    0.00000000
     atom   38 type  1   force =     0.00000720    0.00004144    0.00000000
     atom   39 type  1   force =     0.00016638   -0.00004933    0.00000000
     atom   40 type  1   force =     0.00014083   -0.00011116    0.00000000
     atom   41 type  1   force =     0.00022681   -0.00015236    0.00000000
     atom   42 type  1   force =     0.00019613   -0.00017118    0.00000000
     atom   43 type  1   force =     0.00004621    0.00001102    0.00000000
     atom   44 type  1   force =     0.00019493    0.00004628    0.00000000
     atom   45 type  1   force =    -0.00009409   -0.00017363    0.00000000
     atom   46 type  1   force =    -0.00008866   -0.00013428    0.00000000
     atom   47 type  1   force =    -0.00019099   -0.00003866    0.00000000
     atom   48 type  1   force =    -0.00015161   -0.00030732    0.00000000
     atom   49 type  1   force =     0.00007743   -0.00022853    0.00000000
     atom   50 type  2   force =    -0.00014844   -0.00024432    0.00000000
     atom   51 type  2   force =    -0.00002292   -0.00038867    0.00000000
[...]
     atom:   57    charge:    2.7507    magn:    0.0003    constr:    0.0000
     atom:   58    charge:    2.7526    magn:    0.0039    constr:    0.0000
     atom:   59    charge:    2.7470    magn:    0.0065    constr:    0.0000
     atom:   60    charge:    2.7434    magn:    0.0123    constr:    0.0000
     atom:   61    charge:    2.7563    magn:    0.0012    constr:    0.0000
     atom:   62    charge:    2.7503    magn:   -0.0001    constr:    0.0000
     atom:   63    charge:    2.7510    magn:    0.0000    constr:    0.0000
     atom:   64    charge:    2.7562    magn:    0.0000    constr:    0.0000
     atom:   65    charge:    2.7558    magn:    0.0003    constr:    0.0000
     atom:   66    charge:    2.7552    magn:    0.0159    constr:    0.0000
     atom:   67    charge:    1.6558    magn:    0.1192    constr:    0.0000
     atom:   68    charge:    2.7617    magn:   -0.0024    constr:    0.0000
     atom:   69    charge:    2.7563    magn:    0.0012    constr:    0.0000
     atom:   70    charge:    2.7540    magn:    0.0001    constr:    0.0000
     atom:   71    charge:    2.7543    magn:    0.0000    constr:    0.0000
     atom:   72    charge:    2.7498    magn:    0.0002    constr:    0.0000
     atom:   73    charge:    2.7476    magn:    0.0013    constr:    0.0000
     atom:   74    charge:    2.7326    magn:   -0.0028    constr:    0.0000
     atom:   75    charge:    1.6558    magn:    0.1192    constr:    0.0000
     atom:   76    charge:    2.7434    magn:    0.0123    constr:    0.0000
     atom:   77    charge:    2.7537    magn:    0.0000    constr:    0.0000
     atom:   78    charge:    2.7524    magn:    0.0001    constr:    0.0000
     atom:   79    charge:    2.7501    magn:   -0.0000    constr:    0.0000
     atom:   80    charge:    2.7483    magn:   -0.0001    constr:    0.0000
     atom:   81    charge:    2.7476    magn:    0.0013    constr:    0.0000
     atom:   82    charge:    2.7552    magn:    0.0159    constr:    0.0000
     atom:   83    charge:    2.7470    magn:    0.0065    constr:    0.0000
     atom:   84    charge:    2.7455    magn:    0.0029    constr:    0.0000
     atom:   85    charge:    2.7498    magn:    0.0004    constr:    0.0000
     atom:   86    charge:    2.7508    magn:   -0.0001    constr:    0.0000
     atom:   87    charge:    2.7501    magn:   -0.0000    constr:    0.0000
     atom:   88    charge:    2.7498    magn:    0.0002    constr:    0.0000
     atom:   89    charge:    2.7558    magn:    0.0003    constr:    0.0000
     atom:   90    charge:    2.7526    magn:    0.0039    constr:    0.0000
     atom:   91    charge:    2.7515    magn:   -0.0001    constr:    0.0000
     atom:   92    charge:    2.7557    magn:   -0.0000    constr:    0.0000
     atom:   93    charge:    2.7498    magn:    0.0004    constr:    0.0000
     atom:   94    charge:    2.7524    magn:    0.0001    constr:    0.0000
     atom:   95    charge:    2.7543    magn:    0.0000    constr:    0.0000
     atom:   96    charge:    2.7562    magn:    0.0000    constr:    0.0000
     atom:   97    charge:    2.7507    magn:    0.0003    constr:    0.0000
     atom:   98    charge:    2.7550    magn:    0.0005    constr:    0.0000

     total cpu time spent up to now is     3124.0 secs

     End of self-consistent calculation

 ------ SPIN UP ------------


          k = 0.0000 0.0000 0.0000 ( 77329 PWs)   bands (ev):

   -21.7562 -21.5438 -21.3706 -21.3619 -21.3443 -21.2909 -21.2377 -20.8221
   -20.6292 -20.6123 -20.6107 -20.5280 -20.5155 -20.3925 -20.2726 -20.2649
   -20.2428 -20.1088 -20.0960 -19.5555 -19.3731 -19.3708 -19.3675 -19.3562
   -19.3545 -19.3459 -19.3457 -19.3135 -19.2961 -19.1429 -19.1357 -19.0018
   -18.9497 -18.9493 -18.9204 -18.7544 -18.7476 -18.5219 -18.5120 -18.5006
   -18.4884 -18.4278 -18.4106 -18.3581 -18.3344 -18.3312 -18.3167 -17.0413
   -15.0727 -13.0942 -12.7439 -12.7384 -12.7264 -12.6936 -12.6872 -12.6214
   -12.5446 -12.5122 -12.5073 -12.4567 -12.3943 -12.1317 -12.0461 -12.0331
   -12.0102 -11.9585 -11.9382 -11.5183 -11.4001 -11.3817 -11.3669 -11.3604
   -11.3486 -11.3391 -11.3367 -11.2944 -11.2817 -11.0996 -11.0275 -10.8507
   -10.6986 -10.6866 -10.6526 -10.6439 -10.4913 -10.0460 -10.0128  -9.9788
    -9.9088  -9.8608  -9.7945  -9.3740  -9.3051  -9.3025  -9.2812  -9.2585
    -9.2518  -9.1975  -9.0272  -8.9051  -8.8912  -8.8730  -8.8725  -8.8615
    -8.8594  -8.8556  -8.8438  -8.8281  -8.8058  -8.8050  -8.7983  -8.7976
    -8.7841  -8.7815  -8.7811  -8.7424  -8.7289  -8.6904  -8.6515  -8.6407
    -8.4576  -8.4458  -8.1704  -8.1632  -8.1625  -8.1137  -8.0670  -7.8960
    -7.8404  -7.8014  -7.7866  -7.7846  -7.7116  -7.7109  -7.5287  -7.4740
    -7.4721  -7.4405  -7.4246  -7.4134  -7.4121  -7.3821  -7.3707  -7.3255
    -7.3193  -7.3137  -7.2928  -7.2580  -7.2289  -7.2015  -7.1978  -7.0215
    -7.0039  -6.9723  -6.9362  -6.7923  -6.6338  -6.5135  -6.2135  -6.1661
    -6.1469  -6.1352  -6.0886  -6.0413  -6.0374  -6.0359  -6.0297  -6.0221
    -6.0161  -6.0152  -5.9914  -5.9742  -5.8751  -5.7930  -5.7929  -5.6760
    -5.4954  -5.4268  -5.4223  -5.4053  -5.3410  -5.2374  -5.0983  -5.0969
    -4.7737  -4.7483  -4.7331  -4.7268  -4.6675  -4.6317  -4.5222  -4.4865
    -4.4848  -4.4774  -4.3451  -3.5477   0.0805   0.1873   0.7096   0.7309
     0.7344   0.7405   0.7603   0.7651   0.7974   0.8178   0.8186   0.8218
     0.8255   0.8406   0.8487   0.8828   0.9036   0.9055   0.9327   0.9434
     0.9777   1.1628   1.2479   1.2491   1.2689   1.2771   1.3126   1.3288
     1.3310   1.3339   1.3440   1.3514   1.3902   1.4407   1.4425   1.4433
     1.4505   1.4530   1.4751   1.8864   2.1109   2.1173   2.1271   2.1343
     2.3210   2.3333   2.3395   2.3562   2.3785

 ------ SPIN DOWN ----------


          k = 0.0000 0.0000 0.0000 ( 77329 PWs)   bands (ev):

   -21.7510 -21.5403 -21.3685 -21.3605 -21.3435 -21.2831 -21.2301 -20.8194
   -20.6254 -20.6080 -20.6059 -20.5234 -20.5116 -20.3914 -20.2661 -20.2589
   -20.2394 -20.0966 -20.0862 -19.5486 -19.3696 -19.3691 -19.3654 -19.3544
   -19.3516 -19.3424 -19.3365 -19.3028 -19.2919 -19.1368 -19.1313 -18.9978
   -18.9458 -18.9445 -18.9161 -18.7444 -18.7385 -18.5154 -18.5085 -18.4953
   -18.4852 -18.4237 -18.4030 -18.3562 -18.3309 -18.3275 -18.3123 -16.8917
   -14.7832 -13.0526 -12.7421 -12.7344 -12.7240 -12.6906 -12.6854 -12.6175
   -12.5426 -12.5082 -12.5036 -12.4410 -12.3858 -12.1263 -12.0441 -12.0304
   -12.0054 -11.9468 -11.9300 -11.5084 -11.3941 -11.3776 -11.3652 -11.3590
   -11.3469 -11.3354 -11.3352 -11.2852 -11.2708 -11.0664 -11.0036 -10.8465
   -10.6967 -10.6848 -10.6427 -10.6387 -10.4783 -10.0418 -10.0084  -9.9734
    -9.8986  -9.8462  -9.7787  -9.3712  -9.2972  -9.2871  -9.2769  -9.2541
    -9.2497  -9.1934  -9.0244  -8.9009  -8.8872  -8.8709  -8.8704  -8.8574
    -8.8516  -8.8411  -8.8406  -8.8264  -8.8033  -8.8012  -8.7953  -8.7936
    -8.7808  -8.7794  -8.7778  -8.7202  -8.7145  -8.6395  -8.6293  -8.6236
    -8.4459  -8.4144  -8.1691  -8.1612  -8.1608  -8.0948  -8.0588  -7.8814
    -7.8257  -7.7921  -7.7773  -7.7739  -7.6898  -7.6770  -7.5223  -7.4725
    -7.4690  -7.4384  -7.4232  -7.4112  -7.4075  -7.3809  -7.3688  -7.3230
    -7.3050  -7.3003  -7.2831  -7.2506  -7.1849  -7.1672  -7.1539  -7.0051
    -7.0021  -6.9713  -6.9186  -6.7650  -6.6126  -6.4863  -6.2015  -6.1630
    -6.1450  -6.1324  -6.0728  -6.0350  -6.0323  -6.0289  -6.0184  -6.0181
    -6.0075  -5.9995  -5.9654  -5.9606  -5.8107  -5.7735  -5.7557  -5.6490
    -5.4837  -5.4176  -5.4104  -5.3967  -5.2689  -5.1838  -5.0369  -5.0203
    -4.7596  -4.7390  -4.7206  -4.7171  -4.6306  -4.6185  -4.5170  -4.4778
    -4.4753  -4.4693  -4.1691  -2.8671   0.1680   0.1893   0.7102   0.7361
     0.7403   0.7516   0.7767   0.7821   0.7961   0.8183   0.8217   0.8225
     0.8253   0.8404   0.8515   0.8885   0.9145   0.9201   0.9372   0.9605
     1.0270   1.1778   1.2585   1.2772   1.2802   1.3157   1.3283   1.3296
     1.3333   1.3404   1.3431   1.3693   1.3992   1.4398   1.4416   1.4424
     1.4494   1.4524   1.4782   1.8873   2.1137   2.1438   2.3252   2.3415
     2.3433   2.3511   2.3603   2.3624   2.4318

     highest occupied, lowest unoccupied level (ev):    -3.5477   -2.8671

!    total energy              =   -1940.48613138 Ry
     Harris-Foulkes estimate   =   -1940.48613138 Ry
     estimated scf accuracy    <          9.5E-09 Ry

     total all-electron energy =     -7770.310608 Ry

     The total energy is the sum of the following terms:

     one-electron contribution =  -10659.32250218 Ry
     hartree contribution      =    5415.53865717 Ry
     xc contribution           =    -430.86012631 Ry
     ewald contribution        =    4377.60806441 Ry
     DFT-D3 Dispersion         =      -0.27039965 Ry
     one-center paw contrib.   =    -643.17982482 Ry

     total magnetization       =     1.00 Bohr mag/cell
     absolute magnetization    =     1.20 Bohr mag/cell

     convergence has been achieved in  13 iterations

     negative rho (up, down):  4.867E-01 5.676E-03

     Forces acting on atoms (cartesian axes, Ry/au):

     atom    1 type  1   force =     0.00004203    0.00002278    0.00000000
     atom    2 type  1   force =    -0.00002617    0.00003576    0.00000000
     atom    3 type  1   force =     0.00003919   -0.00006519    0.00000000
     atom    4 type  1   force =     0.00001956   -0.00004031    0.00000000
     atom    5 type  1   force =     0.00001722    0.00012987    0.00000000
     atom    6 type  1   force =     0.00005049    0.00006049    0.00000000
     atom    7 type  1   force =     0.00006947   -0.00000831    0.00000000
     atom    8 type  1   force =     0.00000913   -0.00003628    0.00000000
     atom    9 type  1   force =    -0.00003739    0.00001752    0.00000000
     atom   10 type  1   force =     0.00006255    0.00006719    0.00000000
     atom   11 type  1   force =     0.00004946   -0.00002914    0.00000000
     atom   12 type  1   force =    -0.00017062    0.00001997    0.00000000
     atom   13 type  1   force =    -0.00002565    0.00002198    0.00000000
     atom   14 type  1   force =    -0.00002277   -0.00004568    0.00000000
     atom   15 type  1   force =     0.00002594    0.00000087    0.00000000
     atom   16 type  1   force =    -0.00003756   -0.00000687    0.00000000
     atom   17 type  1   force =    -0.00002459    0.00015323    0.00000000
     atom   18 type  1   force =     0.00009281    0.00006118    0.00000000
     atom   19 type  1   force =    -0.00008858    0.00002328    0.00000000
     atom   20 type  1   force =    -0.00011713    0.00014001    0.00000000
     atom   21 type  1   force =    -0.00011223   -0.00004682    0.00000000
     atom   22 type  1   force =    -0.00002161    0.00001820    0.00000000
     atom   23 type  1   force =     0.00002792    0.00004068    0.00000000
     atom   24 type  1   force =    -0.00006470    0.00007322    0.00000000
     atom   25 type  4   force =    -0.00003806    0.00001034    0.00000000
     atom   26 type  1   force =    -0.00001311   -0.00013887    0.00000000
     atom   27 type  1   force =     0.00005047   -0.00006241    0.00000000
     atom   28 type  1   force =    -0.00001118    0.00005546    0.00000000
     atom   29 type  1   force =     0.00002432    0.00000689    0.00000000
     atom   30 type  1   force =     0.00007424    0.00000104    0.00000000
     atom   31 type  1   force =    -0.00001600   -0.00001549    0.00000000
     atom   32 type  1   force =    -0.00006815    0.00000880    0.00000000
     atom   33 type  1   force =    -0.00010742   -0.00004981    0.00000000
     atom   34 type  1   force =    -0.00003042   -0.00009698    0.00000000
     atom   35 type  1   force =     0.00006266    0.00004226    0.00000000
     atom   36 type  1   force =     0.00006815    0.00001750    0.00000000
     atom   37 type  1   force =     0.00007537   -0.00004687    0.00000000
     atom   38 type  1   force =     0.00003422   -0.00010286    0.00000000
     atom   39 type  1   force =    -0.00003551   -0.00009146    0.00000000
     atom   40 type  1   force =    -0.00006877   -0.00001129    0.00000000
     atom   41 type  1   force =    -0.00010133   -0.00000361    0.00000000
     atom   42 type  1   force =    -0.00005380    0.00005674    0.00000000
     atom   43 type  1   force =     0.00010236   -0.00002537    0.00000000
     atom   44 type  1   force =     0.00004717   -0.00005250    0.00000000
     atom   45 type  1   force =     0.00004078   -0.00004742    0.00000000
     atom   46 type  1   force =     0.00000333    0.00000110    0.00000000
     atom   47 type  1   force =     0.00007039   -0.00000420    0.00000000
     atom   48 type  1   force =     0.00008728    0.00004813    0.00000000
     atom   49 type  1   force =     0.00005941    0.00002809    0.00000000
     atom   50 type  2   force =     0.00010410    0.00003444    0.00000000
     atom   51 type  2   force =     0.00002310    0.00011042    0.00000000
     atom   52 type  2   force =     0.00011835    0.00005834    0.00000000
     atom   53 type  2   force =     0.00010781   -0.00008195    0.00000000
     atom   54 type  2   force =    -0.00012464   -0.00005779    0.00000000
     atom   55 type  2   force =    -0.00011078    0.00000112    0.00000000
     atom   56 type  2   force =    -0.00002970    0.00000399    0.00000000
     atom   57 type  2   force =     0.00006791    0.00011270    0.00000000
     atom   58 type  2   force =     0.00001143    0.00001032    0.00000000
     atom   59 type  2   force =    -0.00000420    0.00008454    0.00000000
     atom   60 type  2   force =     0.00016407    0.00003868    0.00000000
     atom   61 type  2   force =     0.00003161   -0.00003311    0.00000000
     atom   62 type  2   force =     0.00005111   -0.00002219    0.00000000
     atom   63 type  2   force =    -0.00006070    0.00007621    0.00000000
     atom   64 type  2   force =    -0.00003113    0.00012397    0.00000000
     atom   65 type  2   force =     0.00005658   -0.00000435    0.00000000
     atom   66 type  2   force =    -0.00005774   -0.00000144    0.00000000
     atom   67 type  3   force =    -0.00003740    0.00005396    0.00000000
     atom   68 type  2   force =    -0.00004576    0.00004623    0.00000000
     atom   69 type  2   force =     0.00005089    0.00002163    0.00000000
     atom   70 type  2   force =     0.00002902    0.00011242    0.00000000
     atom   71 type  2   force =    -0.00000794    0.00013688    0.00000000
     atom   72 type  2   force =     0.00010581    0.00008752    0.00000000
     atom   73 type  2   force =     0.00006098    0.00000115    0.00000000
     atom   74 type  2   force =    -0.00007724    0.00001741    0.00000000
     atom   75 type  5   force =    -0.00010742   -0.00000939    0.00000000
     atom   76 type  2   force =     0.00001035   -0.00013624    0.00000000
     atom   77 type  2   force =     0.00015218   -0.00003383    0.00000000
     atom   78 type  2   force =     0.00005178   -0.00003087    0.00000000
     atom   79 type  2   force =    -0.00002055    0.00009592    0.00000000
     atom   80 type  2   force =     0.00008614   -0.00001846    0.00000000
     atom   81 type  2   force =     0.00005462   -0.00001322    0.00000000
     atom   82 type  2   force =     0.00000170    0.00009330    0.00000000
     atom   83 type  2   force =     0.00000173   -0.00000225    0.00000000
     atom   84 type  2   force =     0.00003106   -0.00010357    0.00000000
     atom   85 type  2   force =     0.00001402   -0.00011048    0.00000000
     atom   86 type  2   force =    -0.00002803   -0.00000308    0.00000000
     atom   87 type  2   force =    -0.00011292   -0.00001324    0.00000000
     atom   88 type  2   force =    -0.00005985   -0.00010156    0.00000000
     atom   89 type  2   force =     0.00003113   -0.00004523    0.00000000
     atom   90 type  2   force =     0.00000376    0.00000026    0.00000000
     atom   91 type  2   force =    -0.00011117   -0.00010064    0.00000000
     atom   92 type  2   force =     0.00005879   -0.00009255    0.00000000
     atom   93 type  2   force =     0.00004090   -0.00001602    0.00000000
     atom   94 type  2   force =    -0.00001587   -0.00004176    0.00000000
     atom   95 type  2   force =    -0.00018283   -0.00004820    0.00000000
     atom   96 type  2   force =    -0.00016751   -0.00003741    0.00000000
     atom   97 type  2   force =    -0.00010982   -0.00014020    0.00000000
     atom   98 type  2   force =    -0.00003094   -0.00015724    0.00000000

     Total force =     0.000960     Total SCF correction =     0.000097
     SCF correction compared to forces is large: reduce conv_thr to get better values


     Computing stress (Cartesian axis) and pressure


     negative rho (up, down):  4.867E-01 5.676E-03
          total   stress  (Ry/bohr**3)                   (kbar)     P=   -0.18
  -0.00000014   0.00000003   0.00000000         -0.02      0.00      0.00
   0.00000003  -0.00000011   0.00000000          0.00     -0.02      0.00
   0.00000000   0.00000000  -0.00000339          0.00      0.00     -0.50


     Writing output data file C2Cn.save/
 
     init_run     :     10.94s CPU     11.21s WALL (       2 calls)
     electrons    :   2944.69s CPU   2978.65s WALL (       7 calls)
     update_pot   :     18.15s CPU     18.24s WALL (       5 calls)
     forces       :     28.69s CPU     29.13s WALL (       7 calls)
     stress       :     94.02s CPU     94.31s WALL (       7 calls)

     Called by init_run:
     wfcinit      :      4.50s CPU      4.63s WALL (       2 calls)
     potinit      :      2.26s CPU      2.28s WALL (       2 calls)
     hinit0       :      3.15s CPU      3.19s WALL (       2 calls)

     Called by electrons:
     c_bands      :   2868.73s CPU   2886.29s WALL (      53 calls)
     sum_band     :     40.70s CPU     41.41s WALL (      53 calls)
     v_of_rho     :     11.55s CPU     11.89s WALL (      55 calls)
     newd         :      4.48s CPU      4.76s WALL (      55 calls)
     PAW_pot      :     12.89s CPU     12.98s WALL (      60 calls)
     mix_rho      :      0.80s CPU      0.87s WALL (      53 calls)

     Called by c_bands:
     init_us_2    :      2.37s CPU      2.47s WALL (     254 calls)
     rcgdiagg     :   2799.09s CPU   2815.56s WALL (     124 calls)
     wfcrot       :     72.09s CPU     73.03s WALL (     104 calls)

     Called by sum_band:
     sum_band:bec :      0.08s CPU      0.08s WALL (     116 calls)
     addusdens    :      4.19s CPU      4.51s WALL (      53 calls)

     Called by *cgdiagg:
     h_psi        :   1454.49s CPU   1463.67s WALL (  113033 calls)
     s_psi        :    808.96s CPU    813.42s WALL (  225962 calls)
     rdiaghg      :      1.76s CPU      1.81s WALL (     104 calls)

     Called by h_psi:
     h_psi:pot    :   1452.93s CPU   1462.10s WALL (  113033 calls)
     h_psi:calbec :    493.78s CPU    496.33s WALL (  113033 calls)
     vloc_psi     :    547.09s CPU    551.99s WALL (  113033 calls)
     add_vuspsi   :    410.72s CPU    412.82s WALL (  113033 calls)
     hs_1psi      :   1796.01s CPU   1806.41s WALL (  112929 calls)
     s_1psi       :    832.13s CPU    836.40s WALL (  112929 calls)

     General routines
     calbec       :    926.48s CPU    932.03s WALL (  226148 calls)
     fft          :     10.73s CPU     10.83s WALL (    1167 calls)
     ffts         :      0.38s CPU      0.39s WALL (     106 calls)
     fftw         :    527.42s CPU    532.16s WALL (  265064 calls)
 
     Parallel routines
     fft_scatt_xy :     78.57s CPU     79.22s WALL (  266337 calls)
     fft_scatt_yz :    145.67s CPU    147.42s WALL (  266337 calls)
 
     PWSCF        :  51m42.77s CPU  52m23.20s WALL

 
   This run was terminated on:  16:50:22   8Jun2021            

=------------------------------------------------------------------------------=
   JOB DONE.
=------------------------------------------------------------------------------=
