
     Program PWSCF v.6.4.1 starts on  7Jun2021 at 22:45:25 

     This program is part of the open-source Quantum ESPRESSO suite
     for quantum simulation of materials; please cite
         "P. Giannozzi et al., J. Phys.:Condens. Matter 21 395502 (2009);
         "P. Giannozzi et al., J. Phys.:Condens. Matter 29 465901 (2017);
          URL http://www.quantum-espresso.org", 
     in publications or presentations arising from this work. More details at
     http://www.quantum-espresso.org/quote

     Parallel version (MPI), running on    64 processors

     MPI processes distributed on     2 nodes
     R & G space division:  proc/nbgrp/npool/nimage =      64
     Waiting for input...
     Reading input from standard input

     Current dimensions of program PWSCF are:
     Max number of different atomic species (ntypx) = 10
     Max number of k-points (npk) =  40000
     Max angular momentum in pseudopotentials (lmaxx) =  3
               file N.pbe-n-kjpaw_psl.1.0.0.UPF: wavefunction(s)  2S renormalized
               file C.pbe-n-kjpaw_psl.1.0.0.UPF: wavefunction(s)  2S 2P renormalized
               file C.pbe-n-kjpaw_psl.1.0.0.UPF: wavefunction(s)  2S 2P renormalized
               file C.pbe-n-kjpaw_psl.1.0.0.UPF: wavefunction(s)  2S 2P renormalized

     --------------------------------------------
     Parameters for DFT-D3 Dispersion Correction:
     --------------------------------------------
       Reference C6 values for interpolation: 

         atom   Coordination number   C6
         B          0.000           214.36
         B          0.971           150.74
         B          1.944           106.23
         B          2.913            62.89
         B          4.586            56.06
         C1         0.000            98.23
         C1         0.987            86.49
         C1         1.998            58.72
         C1         2.999            51.56
         C1         3.984            36.41
         C2         0.000            98.23
         C2         0.987            86.49
         C2         1.998            58.72
         C2         2.999            51.56
         C2         3.984            36.41
         C3         0.000            98.23
         C3         0.987            86.49
         C3         1.998            58.72
         C3         2.999            51.56
         C3         3.984            36.41
         N          0.000            50.54
         N          0.994            44.25
         N          2.014            39.35
         N          2.990            31.16

       Values used:

         atom   Coordination number  R0_AB[au]  C6      C8
         B          3.323            3.039     62.90   2506.30
         B          3.323            3.039     62.90   2506.30
         B          3.323            3.039     62.90   2506.30
         B          3.323            3.039     62.90   2506.31
         B          3.323            3.039     62.90   2506.30
         B          3.323            3.039     62.90   2506.30
         B          3.323            3.039     62.90   2506.30
         B          3.323            3.039     62.90   2506.30
         B          3.323            3.039     62.90   2506.30
         B          3.325            3.039     62.90   2506.25
         B          3.323            3.039     62.90   2506.30
         B          3.323            3.039     62.90   2506.30
         B          3.323            3.039     62.90   2506.30
         B          3.323            3.039     62.90   2506.30
         B          3.323            3.039     62.90   2506.30
         B          3.323            3.039     62.90   2506.30
         B          3.317            3.039     62.90   2506.45
         B          3.319            3.039     62.90   2506.40
         B          3.323            3.039     62.90   2506.29
         B          3.323            3.039     62.90   2506.30
         B          3.323            3.039     62.90   2506.30
         B          3.323            3.039     62.90   2506.30
         B          3.323            3.039     62.90   2506.30
         B          3.317            3.039     62.90   2506.43
         C2         3.274            2.750     49.03   1417.98
         B          3.319            3.039     62.90   2506.40
         B          3.323            3.039     62.90   2506.30
         B          3.323            3.039     62.90   2506.31
         B          3.323            3.039     62.90   2506.30
         B          3.323            3.039     62.90   2506.30
         B          3.323            3.039     62.90   2506.30
         B          3.317            3.039     62.90   2506.43
         B          3.317            3.039     62.90   2506.45
         B          3.325            3.039     62.90   2506.25
         B          3.323            3.039     62.90   2506.30
         B          3.323            3.039     62.90   2506.30
         B          3.323            3.039     62.90   2506.30
         B          3.323            3.039     62.90   2506.30
         B          3.323            3.039     62.90   2506.30
         B          3.323            3.039     62.90   2506.30
         B          3.323            3.039     62.90   2506.30
         B          3.323            3.039     62.90   2506.30
         B          3.323            3.039     62.90   2506.30
         B          3.323            3.039     62.90   2506.30
         B          3.323            3.039     62.90   2506.30
         B          3.323            3.039     62.90   2506.30
         B          3.323            3.039     62.90   2506.30
         B          3.323            3.039     62.90   2506.30
         B          3.323            3.039     62.90   2506.30
         N          3.129            2.478     31.22    688.75
         N          3.129            2.478     31.22    688.75
         N          3.129            2.478     31.22    688.75
         N          3.129            2.478     31.22    688.75
         N          3.129            2.478     31.22    688.75
         N          3.129            2.478     31.22    688.75
         N          3.129            2.478     31.22    688.75
         N          3.129            2.478     31.22    688.75
         N          3.129            2.478     31.22    688.75
         N          3.136            2.478     31.22    688.68
         N          3.136            2.478     31.22    688.68
         N          3.129            2.478     31.22    688.75
         N          3.129            2.478     31.22    688.75
         N          3.129            2.478     31.22    688.75
         N          3.129            2.478     31.22    688.75
         N          3.129            2.478     31.22    688.75
         N          3.135            2.478     31.22    688.68
         C1         3.195            2.750     50.11   1449.31
         N          3.143            2.478     31.21    688.62
         N          3.129            2.478     31.22    688.75
         N          3.129            2.478     31.22    688.75
         N          3.129            2.478     31.22    688.75
         N          3.129            2.478     31.22    688.75
         N          3.129            2.478     31.22    688.75
         N          3.143            2.478     31.21    688.62
         C3         3.195            2.750     50.11   1449.31
         N          3.136            2.478     31.22    688.68
         N          3.129            2.478     31.22    688.75
         N          3.129            2.478     31.22    688.75
         N          3.129            2.478     31.22    688.75
         N          3.129            2.478     31.22    688.75
         N          3.129            2.478     31.22    688.75
         N          3.135            2.478     31.22    688.68
         N          3.136            2.478     31.22    688.68
         N          3.129            2.478     31.22    688.75
         N          3.129            2.478     31.22    688.75
         N          3.129            2.478     31.22    688.75
         N          3.129            2.478     31.22    688.75
         N          3.129            2.478     31.22    688.75
         N          3.129            2.478     31.22    688.75
         N          3.129            2.478     31.22    688.75
         N          3.129            2.478     31.22    688.75
         N          3.129            2.478     31.22    688.75
         N          3.129            2.478     31.22    688.75
         N          3.129            2.478     31.22    688.75
         N          3.129            2.478     31.22    688.75
         N          3.129            2.478     31.22    688.75
         N          3.129            2.478     31.22    688.75
         N          3.129            2.478     31.22    688.75

         Molecular C6 ( Ry / a.u.^6 ) =    437644.59


     gamma-point specific algorithms are used

     Subspace diagonalization in iterative solution of the eigenvalue problem:
     one sub-group per band group will be used
     scalapack distributed-memory algorithm (size of sub-group:  5*  5 procs)

     Message from routine setup:
     DEPRECATED: symmetry with ibrav=0, use correct ibrav instead
 
     Parallelization info
     --------------------
     sticks:   dense  smooth     PW     G-vecs:    dense   smooth      PW
     Min         188     188     46                19260    19260    2398
     Max         190     190     48                19286    19286    2416
     Sum       12145   12145   3049              1233789  1233789  154157
 


     bravais-lattice index     =            0
     lattice parameter (alat)  =      33.2346  a.u.
     unit-cell volume          =   36104.5892 (a.u.)^3
     number of atoms/cell      =           98
     number of atomic types    =            5
     number of electrons       =       391.00
     number of Kohn-Sham states=          245
     kinetic-energy cutoff     =      40.0000  Ry
     charge density cutoff     =     160.0000  Ry
     convergence threshold     =      1.0E-06
     mixing beta               =       0.7000
     number of iterations used =            8  plain     mixing
     Exchange-correlation      = SLA PW PBX PBC ( 1  4  3  4 0 0)
     Using LIBXC version       =    4   3   4
     nstep                     =           50


     celldm(1)=  33.234611  celldm(2)=   0.000000  celldm(3)=   0.000000
     celldm(4)=   0.000000  celldm(5)=   0.000000  celldm(6)=   0.000000

     crystal axes: (cart. coord. in units of alat)
               a(1) = (   0.999334   0.000000   0.000000 )  
               a(2) = (  -0.499667   0.865449   0.000000 )  
               a(3) = (   0.000000   0.000000   1.137204 )  

     reciprocal axes: (cart. coord. in units 2 pi/alat)
               b(1) = (  1.000666  0.577735  0.000000 )  
               b(2) = (  0.000000  1.155470  0.000000 )  
               b(3) = (  0.000000  0.000000  0.879350 )  


     PseudoPot. # 1 for B  read from file:
     ./pseudo/B.pbe-n-kjpaw_psl.1.0.0.UPF
     MD5 check sum: 8c825a5969375aca5c2c6ad5945b3059
     Pseudo is Projector augmented-wave + core cor, Zval =  3.0
     Generated using "atomic" code by A. Dal Corso v.6.3
     Shape of augmentation charge: PSQ
     Using radial grid of 1059 points,  4 beta functions with: 
                l(1) =   0
                l(2) =   0
                l(3) =   1
                l(4) =   1
     Q(r) pseudized with 0 coefficients 


     PseudoPot. # 2 for N  read from file:
     ./pseudo/N.pbe-n-kjpaw_psl.1.0.0.UPF
     MD5 check sum: 14c48229446f9f2d411169a3abcbc3fa
     Pseudo is Projector augmented-wave + core cor, Zval =  5.0
     Generated using "atomic" code by A. Dal Corso v.6.3
     Shape of augmentation charge: PSQ
     Using radial grid of 1085 points,  4 beta functions with: 
                l(1) =   0
                l(2) =   0
                l(3) =   1
                l(4) =   1
     Q(r) pseudized with 0 coefficients 


     PseudoPot. # 3 for C  read from file:
     ./pseudo/C.pbe-n-kjpaw_psl.1.0.0.UPF
     MD5 check sum: 5f16ad9a65e90284d1d834d4ab3b0f7d
     Pseudo is Projector augmented-wave + core cor, Zval =  4.0
     Generated using "atomic" code by A. Dal Corso v.6.3
     Shape of augmentation charge: PSQ
     Using radial grid of 1073 points,  4 beta functions with: 
                l(1) =   0
                l(2) =   0
                l(3) =   1
                l(4) =   1
     Q(r) pseudized with 0 coefficients 


     PseudoPot. # 4 for C  read from file:
     ./pseudo/C.pbe-n-kjpaw_psl.1.0.0.UPF
     MD5 check sum: 5f16ad9a65e90284d1d834d4ab3b0f7d
     Pseudo is Projector augmented-wave + core cor, Zval =  4.0
     Generated using "atomic" code by A. Dal Corso v.6.3
     Shape of augmentation charge: PSQ
     Using radial grid of 1073 points,  4 beta functions with: 
                l(1) =   0
                l(2) =   0
                l(3) =   1
                l(4) =   1
     Q(r) pseudized with 0 coefficients 


     PseudoPot. # 5 for C  read from file:
     ./pseudo/C.pbe-n-kjpaw_psl.1.0.0.UPF
     MD5 check sum: 5f16ad9a65e90284d1d834d4ab3b0f7d
     Pseudo is Projector augmented-wave + core cor, Zval =  4.0
     Generated using "atomic" code by A. Dal Corso v.6.3
     Shape of augmentation charge: PSQ
     Using radial grid of 1073 points,  4 beta functions with: 
                l(1) =   0
                l(2) =   0
                l(3) =   1
                l(4) =   1
     Q(r) pseudized with 0 coefficients 


     atomic species   valence    mass     pseudopotential
        B              3.00    10.00000     B ( 1.00)
        N              5.00    14.00000     N ( 1.00)
        C1             4.00    12.00000     C ( 1.00)
        C2             4.00    12.00000     C ( 1.00)
        C3             4.00    12.00000     C ( 1.00)

     Starting magnetic structure 
     atomic species   magnetization
        B            0.000
        N            0.000
        C1           1.000
        C2           0.000
        C3           0.000

      2 Sym. Ops. (no inversion) found



   Cartesian axes

     site n.     atom                  positions (alat units)
         1           B   tau(   1) = (  -0.0000000   0.0824309   0.5686018  )
         2           B   tau(   2) = (  -0.0713829   0.2060622   0.5686018  )
         3           B   tau(   3) = (  -0.1427568   0.3296890   0.5686018  )
         4           B   tau(   4) = (  -0.2141395   0.4533331   0.5686018  )
         5           B   tau(   5) = (  -0.2855266   0.5769736   0.5686018  )
         6           B   tau(   6) = (  -0.3569036   0.7005986   0.5686018  )
         7           B   tau(   7) = (  -0.4282799   0.8242336   0.5686018  )
         8           B   tau(   8) = (   0.1427700   0.0824283   0.5686018  )
         9           B   tau(   9) = (   0.0713829   0.2060622   0.5686018  )
        10           B   tau(  10) = (  -0.0000000   0.3296942   0.5686018  )
        11           B   tau(  11) = (  -0.0713745   0.4533335   0.5686018  )
        12           B   tau(  12) = (  -0.1427567   0.5769711   0.5686018  )
        13           B   tau(  13) = (  -0.2141437   0.7006019   0.5686018  )
        14           B   tau(  14) = (  -0.2855207   0.8242373   0.5686018  )
        15           B   tau(  15) = (   0.2855205   0.0824268   0.5686018  )
        16           B   tau(  16) = (   0.2141440   0.2060546   0.5686018  )
        17           B   tau(  17) = (   0.1427568   0.3296890   0.5686018  )
        18           B   tau(  18) = (   0.0713735   0.4533335   0.5686018  )
        19           B   tau(  19) = (  -0.0000005   0.5769663   0.5686018  )
        20           B   tau(  20) = (  -0.0713827   0.7005944   0.5686018  )
        21           B   tau(  21) = (  -0.1427698   0.8242355   0.5686018  )
        22           B   tau(  22) = (   0.4282797   0.0824299   0.5686018  )
        23           B   tau(  23) = (   0.3569027   0.2060579   0.5686018  )
        24           B   tau(  24) = (   0.2855263   0.3296861   0.5686018  )
        25           C2  tau(  25) = (   0.2141385   0.4533331   0.5686018  )
        26           B   tau(  26) = (   0.1427557   0.5769711   0.5686018  )
        27           B   tau(  27) = (   0.0713817   0.7005944   0.5686018  )
        28           B   tau(  28) = (  -0.0000005   0.8242327   0.5686018  )
        29           B   tau(  29) = (   0.5710548   0.0824299   0.5686018  )
        30           B   tau(  30) = (   0.4996677   0.2060636   0.5686018  )
        31           B   tau(  31) = (   0.4282907   0.3296923   0.5686018  )
        32           B   tau(  32) = (   0.3569138   0.4533330   0.5686018  )
        33           B   tau(  33) = (   0.2855266   0.5769736   0.5686018  )
        34           B   tau(  34) = (   0.2141437   0.7006019   0.5686018  )
        35           B   tau(  35) = (   0.1427698   0.8242355   0.5686018  )
        36           B   tau(  36) = (   0.7138140   0.0824268   0.5686018  )
        37           B   tau(  37) = (   0.6424318   0.2060579   0.5686018  )
        38           B   tau(  38) = (   0.5710448   0.3296923   0.5686018  )
        39           B   tau(  39) = (   0.4996672   0.4533333   0.5686018  )
        40           B   tau(  40) = (   0.4282907   0.5769676   0.5686018  )
        41           B   tau(  41) = (   0.3569036   0.7005986   0.5686018  )
        42           B   tau(  42) = (   0.2855207   0.8242373   0.5686018  )
        43           B   tau(  43) = (   0.8565645   0.0824283   0.5686018  )
        44           B   tau(  44) = (   0.7851905   0.2060546   0.5686018  )
        45           B   tau(  45) = (   0.7138082   0.3296861   0.5686018  )
        46           B   tau(  46) = (   0.6424207   0.4533330   0.5686018  )
        47           B   tau(  47) = (   0.5710438   0.5769676   0.5686018  )
        48           B   tau(  48) = (   0.4996672   0.7005925   0.5686018  )
        49           B   tau(  49) = (   0.4282799   0.8242336   0.5686018  )
        50           N   tau(  50) = (   0.0713853   0.0412143   0.5686018  )
        51           N   tau(  51) = (   0.0000000   0.1648537   0.5686018  )
        52           N   tau(  52) = (  -0.0713781   0.2884819   0.5686018  )
        53           N   tau(  53) = (  -0.1427563   0.4121169   0.5686018  )
        54           N   tau(  54) = (  -0.2141417   0.5357601   0.5686018  )
        55           N   tau(  55) = (  -0.2855237   0.6593929   0.5686018  )
        56           N   tau(  56) = (  -0.3568998   0.7830222   0.5686018  )
        57           N   tau(  57) = (   0.2141455   0.0412121   0.5686018  )
        58           N   tau(  58) = (   0.1427635   0.1648494   0.5686018  )
        59           N   tau(  59) = (   0.0713781   0.2884819   0.5686018  )
        60           N   tau(  60) = (   0.0000000   0.4121169   0.5686018  )
        61           N   tau(  61) = (  -0.0713787   0.5357561   0.5686018  )
        62           N   tau(  62) = (  -0.1427636   0.6593906   0.5686018  )
        63           N   tau(  63) = (  -0.2141456   0.7830234   0.5686018  )
        64           N   tau(  64) = (   0.3568998   0.0412132   0.5686018  )
        65           N   tau(  65) = (   0.2855237   0.1648472   0.5686018  )
        66           N   tau(  66) = (   0.2141416   0.2884777   0.5686018  )
        67           C1  tau(  67) = (   0.1427563   0.4121169   0.5686018  )
        68           N   tau(  68) = (   0.0713777   0.5357561   0.5686018  )
        69           N   tau(  69) = (  -0.0000005   0.6593868   0.5686018  )
        70           N   tau(  70) = (  -0.0713854   0.7830212   0.5686018  )
        71           N   tau(  71) = (   0.4996677   0.0412149   0.5686018  )
        72           N   tau(  72) = (   0.4282857   0.1648522   0.5686018  )
        73           N   tau(  73) = (   0.3569096   0.2884793   0.5686018  )
        74           N   tau(  74) = (   0.2855275   0.4121166   0.5686018  )
        75           C3  tau(  75) = (   0.2141417   0.5357601   0.5686018  )
        76           N   tau(  76) = (   0.1427636   0.6593906   0.5686018  )
        77           N   tau(  77) = (   0.0713854   0.7830212   0.5686018  )
        78           N   tau(  78) = (   0.6424346   0.0412132   0.5686018  )
        79           N   tau(  79) = (   0.5710498   0.1648522   0.5686018  )
        80           N   tau(  80) = (   0.4996677   0.2884827   0.5686018  )
        81           N   tau(  81) = (   0.4282916   0.4121166   0.5686018  )
        82           N   tau(  82) = (   0.3569090   0.5357581   0.5686018  )
        83           N   tau(  83) = (   0.2855237   0.6593929   0.5686018  )
        84           N   tau(  84) = (   0.2141456   0.7830234   0.5686018  )
        85           N   tau(  85) = (   0.7851890   0.0412121   0.5686018  )
        86           N   tau(  86) = (   0.7138108   0.1648472   0.5686018  )
        87           N   tau(  87) = (   0.6424259   0.2884793   0.5686018  )
        88           N   tau(  88) = (   0.5710439   0.4121166   0.5686018  )
        89           N   tau(  89) = (   0.4996672   0.5357547   0.5686018  )
        90           N   tau(  90) = (   0.4282852   0.6593876   0.5686018  )
        91           N   tau(  91) = (   0.3568998   0.7830222   0.5686018  )
        92           N   tau(  92) = (   0.9279491   0.0412143   0.5686018  )
        93           N   tau(  93) = (   0.8565710   0.1648494   0.5686018  )
        94           N   tau(  94) = (   0.7851929   0.2884777   0.5686018  )
        95           N   tau(  95) = (   0.7138080   0.4121166   0.5686018  )
        96           N   tau(  96) = (   0.6424255   0.5357581   0.5686018  )
        97           N   tau(  97) = (   0.5710493   0.6593876   0.5686018  )
        98           N   tau(  98) = (   0.4996672   0.7830203   0.5686018  )

     number of k points=     1
                       cart. coord. in units 2pi/alat
        k(    1) = (   0.0000000   0.0000000   0.0000000), wk =   1.0000000

     Dense  grid:   616895 G-vectors     FFT dimensions: ( 135, 135, 160)

     Occupations read from input 

      Spin-up

        1.0000   1.0000   1.0000   1.0000   1.0000   1.0000   1.0000   1.0000
        1.0000   1.0000   1.0000   1.0000   1.0000   1.0000   1.0000   1.0000
        1.0000   1.0000   1.0000   1.0000   1.0000   1.0000   1.0000   1.0000
        1.0000   1.0000   1.0000   1.0000   1.0000   1.0000   1.0000   1.0000
        1.0000   1.0000   1.0000   1.0000   1.0000   1.0000   1.0000   1.0000
        1.0000   1.0000   1.0000   1.0000   1.0000   1.0000   1.0000   1.0000
        1.0000   1.0000   1.0000   1.0000   1.0000   1.0000   1.0000   1.0000
        1.0000   1.0000   1.0000   1.0000   1.0000   1.0000   1.0000   1.0000
        1.0000   1.0000   1.0000   1.0000   1.0000   1.0000   1.0000   1.0000
        1.0000   1.0000   1.0000   1.0000   1.0000   1.0000   1.0000   1.0000
        1.0000   1.0000   1.0000   1.0000   1.0000   1.0000   1.0000   1.0000
        1.0000   1.0000   1.0000   1.0000   1.0000   1.0000   1.0000   1.0000
        1.0000   1.0000   1.0000   1.0000   1.0000   1.0000   1.0000   1.0000
        1.0000   1.0000   1.0000   1.0000   1.0000   1.0000   1.0000   1.0000
        1.0000   1.0000   1.0000   1.0000   1.0000   1.0000   1.0000   1.0000
        1.0000   1.0000   1.0000   1.0000   1.0000   1.0000   1.0000   1.0000
        1.0000   1.0000   1.0000   1.0000   1.0000   1.0000   1.0000   1.0000
        1.0000   1.0000   1.0000   1.0000   1.0000   1.0000   1.0000   1.0000
        1.0000   1.0000   1.0000   1.0000   1.0000   1.0000   1.0000   1.0000
        1.0000   1.0000   1.0000   1.0000   1.0000   1.0000   1.0000   1.0000
        1.0000   1.0000   1.0000   1.0000   1.0000   1.0000   1.0000   1.0000
        1.0000   1.0000   1.0000   1.0000   1.0000   1.0000   1.0000   1.0000
        1.0000   1.0000   1.0000   1.0000   1.0000   1.0000   1.0000   1.0000
        1.0000   1.0000   1.0000   1.0000   1.0000   1.0000   1.0000   1.0000
        1.0000   1.0000   1.0000   1.0000   0.0000   0.0000   0.0000   0.0000
        0.0000   0.0000   0.0000   0.0000   0.0000   0.0000   0.0000   0.0000
        0.0000   0.0000   0.0000   0.0000   0.0000   0.0000   0.0000   0.0000
        0.0000   0.0000   0.0000   0.0000   0.0000   0.0000   0.0000   0.0000
        0.0000   0.0000   0.0000   0.0000   0.0000   0.0000   0.0000   0.0000
        0.0000   0.0000   0.0000   0.0000   0.0000   0.0000   0.0000   0.0000
        0.0000   0.0000   0.0000   0.0000   0.0000

      Spin-down

        1.0000   1.0000   1.0000   1.0000   1.0000   1.0000   1.0000   1.0000
        1.0000   1.0000   1.0000   1.0000   1.0000   1.0000   1.0000   1.0000
        1.0000   1.0000   1.0000   1.0000   1.0000   1.0000   1.0000   1.0000
        1.0000   1.0000   1.0000   1.0000   1.0000   1.0000   1.0000   1.0000
        1.0000   1.0000   1.0000   1.0000   1.0000   1.0000   1.0000   1.0000
        1.0000   1.0000   1.0000   1.0000   1.0000   1.0000   1.0000   1.0000
        1.0000   1.0000   1.0000   1.0000   1.0000   1.0000   1.0000   1.0000
        1.0000   1.0000   1.0000   1.0000   1.0000   1.0000   1.0000   1.0000
        1.0000   1.0000   1.0000   1.0000   1.0000   1.0000   1.0000   1.0000
        1.0000   1.0000   1.0000   1.0000   1.0000   1.0000   1.0000   1.0000
        1.0000   1.0000   1.0000   1.0000   1.0000   1.0000   1.0000   1.0000
        1.0000   1.0000   1.0000   1.0000   1.0000   1.0000   1.0000   1.0000
        1.0000   1.0000   1.0000   1.0000   1.0000   1.0000   1.0000   1.0000
        1.0000   1.0000   1.0000   1.0000   1.0000   1.0000   1.0000   1.0000
        1.0000   1.0000   1.0000   1.0000   1.0000   1.0000   1.0000   1.0000
        1.0000   1.0000   1.0000   1.0000   1.0000   1.0000   1.0000   1.0000
        1.0000   1.0000   1.0000   1.0000   1.0000   1.0000   1.0000   1.0000
        1.0000   1.0000   1.0000   1.0000   1.0000   1.0000   1.0000   1.0000
        1.0000   1.0000   1.0000   1.0000   1.0000   1.0000   1.0000   1.0000
        1.0000   1.0000   1.0000   1.0000   1.0000   1.0000   1.0000   1.0000
        1.0000   1.0000   1.0000   1.0000   1.0000   1.0000   1.0000   1.0000
        1.0000   1.0000   1.0000   1.0000   1.0000   1.0000   1.0000   1.0000
        1.0000   1.0000   1.0000   1.0000   1.0000   1.0000   1.0000   1.0000
        1.0000   1.0000   1.0000   1.0000   1.0000   1.0000   1.0000   1.0000
        1.0000   1.0000   1.0000   0.0000   0.0000   0.0000   0.0000   0.0000
        0.0000   0.0000   0.0000   0.0000   0.0000   0.0000   0.0000   0.0000
        0.0000   0.0000   0.0000   0.0000   0.0000   0.0000   0.0000   0.0000
        0.0000   0.0000   0.0000   0.0000   0.0000   0.0000   0.0000   0.0000
        0.0000   0.0000   0.0000   0.0000   0.0000   0.0000   0.0000   0.0000
        0.0000   0.0000   0.0000   0.0000   0.0000   0.0000   0.0000   0.0000
        0.0000   0.0000   0.0000   0.0000   0.0000

     Estimated max dynamical RAM per process >     122.14 MB

     Estimated total dynamical RAM >       7.63 GB
     Generating pointlists ...
     new r_m :   0.0340 (alat units)  1.1299 (a.u.) for type    1
     new r_m :   0.0340 (alat units)  1.1299 (a.u.) for type    2
     new r_m :   0.0340 (alat units)  1.1300 (a.u.) for type    3
     new r_m :   0.0340 (alat units)  1.1300 (a.u.) for type    4
     new r_m :   0.0340 (alat units)  1.1300 (a.u.) for type    5

     Check: negative core charge=   -0.000006

     Initial potential from superposition of free atoms

     starting charge  390.98597, renormalised to  391.00000

     negative rho (up, down):  5.431E-02 5.945E-02
     Starting wfcs are  392 randomized atomic wfcs
     Checking if some PAW data can be deallocated... 

     total cpu time spent up to now is        7.4 secs

     Self-consistent Calculation

     iteration #  1     ecut=    40.00 Ry     beta= 0.70
     CG style diagonalization
     ethr =  1.00E-02,  avg # of iterations =  3.1

     negative rho (up, down):  3.290E-01 8.947E-03

     total cpu time spent up to now is       43.0 secs

     total energy              =   -1933.34255556 Ry
     Harris-Foulkes estimate   =   -1946.65790642 Ry
     estimated scf accuracy    <      20.14234887 Ry

     total magnetization       =     1.00 Bohr mag/cell
     absolute magnetization    =     1.45 Bohr mag/cell

     iteration #  2     ecut=    40.00 Ry     beta= 0.70
     CG style diagonalization
     ethr =  5.15E-03,  avg # of iterations =  4.0

     negative rho (up, down):  3.649E-01 6.147E-03

     total cpu time spent up to now is       78.2 secs

     total energy              =   -1937.63550812 Ry
     Harris-Foulkes estimate   =   -1943.99408217 Ry
     estimated scf accuracy    <      12.45463703 Ry

     total magnetization       =     1.00 Bohr mag/cell
     absolute magnetization    =     1.32 Bohr mag/cell

     iteration #  3     ecut=    40.00 Ry     beta= 0.70
     CG style diagonalization
     ethr =  3.19E-03,  avg # of iterations =  3.8

     negative rho (up, down):  4.244E-01 5.919E-03

     total cpu time spent up to now is      110.5 secs

     total energy              =   -1940.17112692 Ry
     Harris-Foulkes estimate   =   -1940.52591774 Ry
     estimated scf accuracy    <       0.60636351 Ry

     total magnetization       =     1.00 Bohr mag/cell
     absolute magnetization    =     1.17 Bohr mag/cell

     iteration #  4     ecut=    40.00 Ry     beta= 0.70
     CG style diagonalization
     c_bands:  1 eigenvalues not converged
     ethr =  1.55E-04,  avg # of iterations =  4.5

     negative rho (up, down):  4.624E-01 5.136E-03

     total cpu time spent up to now is      151.3 secs

     total energy              =   -1940.33932405 Ry
     Harris-Foulkes estimate   =   -1940.57435192 Ry
     estimated scf accuracy    <       0.61394176 Ry

     total magnetization       =     1.00 Bohr mag/cell
     absolute magnetization    =     1.16 Bohr mag/cell

     iteration #  5     ecut=    40.00 Ry     beta= 0.70
     CG style diagonalization
     c_bands:  1 eigenvalues not converged
     ethr =  1.55E-04,  avg # of iterations =  3.3

     negative rho (up, down):  4.746E-01 4.936E-03

     total cpu time spent up to now is      177.7 secs

     total energy              =   -1940.43215769 Ry
     Harris-Foulkes estimate   =   -1940.44220880 Ry
     estimated scf accuracy    <       0.02516916 Ry

     total magnetization       =     1.00 Bohr mag/cell
     absolute magnetization    =     1.17 Bohr mag/cell

     iteration #  6     ecut=    40.00 Ry     beta= 0.70
     CG style diagonalization
     c_bands:  2 eigenvalues not converged
     c_bands:  4 eigenvalues not converged
     ethr =  6.44E-06,  avg # of iterations =  6.4

     negative rho (up, down):  4.874E-01 5.087E-03

     total cpu time spent up to now is      233.9 secs

     total energy              =   -1940.44118372 Ry
     Harris-Foulkes estimate   =   -1940.44307324 Ry
     estimated scf accuracy    <       0.00928231 Ry

     total magnetization       =     1.00 Bohr mag/cell
     absolute magnetization    =     1.20 Bohr mag/cell

     iteration #  7     ecut=    40.00 Ry     beta= 0.70
     CG style diagonalization
     c_bands:  2 eigenvalues not converged
     c_bands:  4 eigenvalues not converged
     ethr =  2.37E-06,  avg # of iterations =  5.7

     negative rho (up, down):  4.901E-01 5.249E-03

     total cpu time spent up to now is      282.7 secs

     total energy              =   -1940.44344091 Ry
     Harris-Foulkes estimate   =   -1940.44374942 Ry
     estimated scf accuracy    <       0.00135114 Ry

     total magnetization       =     1.00 Bohr mag/cell
     absolute magnetization    =     1.20 Bohr mag/cell

     iteration #  8     ecut=    40.00 Ry     beta= 0.70
     CG style diagonalization
     c_bands:  1 eigenvalues not converged
     c_bands:  1 eigenvalues not converged
     ethr =  3.46E-07,  avg # of iterations =  3.5

     negative rho (up, down):  4.900E-01 5.279E-03

     total cpu time spent up to now is      311.6 secs

     total energy              =   -1940.44372879 Ry
     Harris-Foulkes estimate   =   -1940.44380327 Ry
     estimated scf accuracy    <       0.00043093 Ry

     total magnetization       =     1.00 Bohr mag/cell
     absolute magnetization    =     1.20 Bohr mag/cell

     iteration #  9     ecut=    40.00 Ry     beta= 0.70
     CG style diagonalization
     ethr =  1.10E-07,  avg # of iterations =  3.5

     negative rho (up, down):  4.896E-01 5.359E-03

     total cpu time spent up to now is      340.9 secs

     total energy              =   -1940.44384754 Ry
     Harris-Foulkes estimate   =   -1940.44381895 Ry
     estimated scf accuracy    <       0.00005836 Ry

     total magnetization       =     1.00 Bohr mag/cell
     absolute magnetization    =     1.20 Bohr mag/cell

     iteration # 10     ecut=    40.00 Ry     beta= 0.70
     CG style diagonalization
     ethr =  1.49E-08,  avg # of iterations =  4.0

     negative rho (up, down):  4.895E-01 5.405E-03

     total cpu time spent up to now is      375.2 secs

     total energy              =   -1940.44388316 Ry
     Harris-Foulkes estimate   =   -1940.44388709 Ry
     estimated scf accuracy    <       0.00004250 Ry

     total magnetization       =     1.00 Bohr mag/cell
     absolute magnetization    =     1.21 Bohr mag/cell

     iteration # 11     ecut=    40.00 Ry     beta= 0.70
     CG style diagonalization
     ethr =  1.09E-08,  avg # of iterations =  3.3

     negative rho (up, down):  4.897E-01 5.414E-03

     total cpu time spent up to now is      402.3 secs

     total energy              =   -1940.44388923 Ry
     Harris-Foulkes estimate   =   -1940.44389219 Ry
     estimated scf accuracy    <       0.00000753 Ry

     total magnetization       =     1.00 Bohr mag/cell
     absolute magnetization    =     1.21 Bohr mag/cell

     iteration # 12     ecut=    40.00 Ry     beta= 0.70
     CG style diagonalization
     ethr =  1.93E-09,  avg # of iterations =  3.8

     negative rho (up, down):  4.896E-01 5.424E-03

     total cpu time spent up to now is      435.2 secs

     total energy              =   -1940.44389183 Ry
     Harris-Foulkes estimate   =   -1940.44389155 Ry
     estimated scf accuracy    <       0.00000111 Ry

     total magnetization       =     1.00 Bohr mag/cell
     absolute magnetization    =     1.21 Bohr mag/cell

     iteration # 13     ecut=    40.00 Ry     beta= 0.70
     CG style diagonalization
     ethr =  2.84E-10,  avg # of iterations =  3.7

     negative rho (up, down):  4.896E-01 5.421E-03
 
     Magnetic moment per site:
     atom:    1    charge:    0.8803    magn:    0.0000    constr:    0.0000
     atom:    2    charge:    0.8814    magn:    0.0003    constr:    0.0000
     atom:    3    charge:    0.8803    magn:    0.0009    constr:    0.0000
     atom:    4    charge:    0.8797    magn:   -0.0001    constr:    0.0000
     atom:    5    charge:    0.8803    magn:    0.0001    constr:    0.0000
     atom:    6    charge:    0.8814    magn:    0.0001    constr:    0.0000
     atom:    7    charge:    0.8803    magn:   -0.0000    constr:    0.0000
     atom:    8    charge:    0.8821    magn:    0.0001    constr:    0.0000
     atom:    9    charge:    0.8823    magn:   -0.0004    constr:    0.0000
     atom:   10    charge:    0.8822    magn:    0.0033    constr:    0.0000
     atom:   11    charge:    0.8819    magn:    0.0004    constr:    0.0000
     atom:   12    charge:    0.8812    magn:    0.0001    constr:    0.0000
     atom:   13    charge:    0.8820    magn:   -0.0000    constr:    0.0000
     atom:   14    charge:    0.8814    magn:    0.0001    constr:    0.0000
     atom:   15    charge:    0.8825    magn:   -0.0001    constr:    0.0000
     atom:   16    charge:    0.8834    magn:   -0.0001    constr:    0.0000
     atom:   17    charge:    0.9167    magn:    0.0026    constr:    0.0000
     atom:   18    charge:    0.9158    magn:    0.0082    constr:    0.0000
     atom:   19    charge:    0.8856    magn:   -0.0004    constr:    0.0000
     atom:   20    charge:    0.8812    magn:    0.0001    constr:    0.0000
     atom:   21    charge:    0.8803    magn:    0.0001    constr:    0.0000
     atom:   22    charge:    0.8805    magn:    0.0001    constr:    0.0000
     atom:   23    charge:    0.8816    magn:    0.0003    constr:    0.0000
     atom:   24    charge:    0.8825    magn:   -0.0006    constr:    0.0000
     atom:   25    charge:    1.6888    magn:   -0.0277    constr:    0.0000
     atom:   26    charge:    0.9158    magn:    0.0083    constr:    0.0000
     atom:   27    charge:    0.8819    magn:    0.0004    constr:    0.0000
     atom:   28    charge:    0.8797    magn:   -0.0001    constr:    0.0000
     atom:   29    charge:    0.8805    magn:    0.0001    constr:    0.0000
     atom:   30    charge:    0.8816    magn:    0.0001    constr:    0.0000
     atom:   31    charge:    0.8819    magn:   -0.0004    constr:    0.0000
     atom:   32    charge:    0.8825    magn:   -0.0006    constr:    0.0000
     atom:   33    charge:    0.9167    magn:    0.0027    constr:    0.0000
     atom:   34    charge:    0.8822    magn:    0.0033    constr:    0.0000
     atom:   35    charge:    0.8803    magn:    0.0009    constr:    0.0000
     atom:   36    charge:    0.8824    magn:    0.0004    constr:    0.0000
     atom:   37    charge:    0.8819    magn:   -0.0000    constr:    0.0000
     atom:   38    charge:    0.8816    magn:    0.0001    constr:    0.0000
     atom:   39    charge:    0.8816    magn:    0.0003    constr:    0.0000
     atom:   40    charge:    0.8834    magn:   -0.0001    constr:    0.0000
     atom:   41    charge:    0.8823    magn:   -0.0004    constr:    0.0000
     atom:   42    charge:    0.8814    magn:    0.0003    constr:    0.0000
     atom:   43    charge:    0.8821    magn:   -0.0001    constr:    0.0000
     atom:   44    charge:    0.8824    magn:    0.0004    constr:    0.0000
     atom:   45    charge:    0.8805    magn:    0.0001    constr:    0.0000
     atom:   46    charge:    0.8805    magn:    0.0001    constr:    0.0000
     atom:   47    charge:    0.8825    magn:   -0.0001    constr:    0.0000
     atom:   48    charge:    0.8821    magn:    0.0001    constr:    0.0000
     atom:   49    charge:    0.8803    magn:    0.0000    constr:    0.0000
     atom:   50    charge:    2.8683    magn:    0.0007    constr:    0.0000
     atom:   51    charge:    2.8715    magn:   -0.0002    constr:    0.0000
     atom:   52    charge:    2.8725    magn:    0.0047    constr:    0.0000
     atom:   53    charge:    2.8685    magn:    0.0001    constr:    0.0000
     atom:   54    charge:    2.8684    magn:    0.0003    constr:    0.0000
     atom:   55    charge:    2.8730    magn:   -0.0000    constr:    0.0000
     atom:   56    charge:    2.8714    magn:   -0.0001    constr:    0.0000
     atom:   57    charge:    2.8690    magn:    0.0004    constr:    0.0000
     atom:   58    charge:    2.8684    magn:    0.0054    constr:    0.0000
     atom:   59    charge:    2.8714    magn:    0.0080    constr:    0.0000
     atom:   60    charge:    2.8686    magn:    0.0180    constr:    0.0000
     atom:   61    charge:    2.8688    magn:    0.0024    constr:    0.0000
     atom:   62    charge:    2.8713    magn:   -0.0001    constr:    0.0000
     atom:   63    charge:    2.8730    magn:   -0.0000    constr:    0.0000
     atom:   64    charge:    2.8675    magn:    0.0000    constr:    0.0000
     atom:   65    charge:    2.8699    magn:    0.0003    constr:    0.0000
     atom:   66    charge:    2.8635    magn:    0.0194    constr:    0.0000
     atom:   67    charge:    1.8138    magn:    0.1190    constr:    0.0000
     atom:   68    charge:    2.8664    magn:   -0.0019    constr:    0.0000
     atom:   69    charge:    2.8688    magn:    0.0024    constr:    0.0000
     atom:   70    charge:    2.8684    magn:    0.0003    constr:    0.0000
     atom:   71    charge:    2.8683    magn:   -0.0000    constr:    0.0000
     atom:   72    charge:    2.8694    magn:    0.0003    constr:    0.0000
     atom:   73    charge:    2.8688    magn:    0.0021    constr:    0.0000
     atom:   74    charge:    2.8406    magn:   -0.0032    constr:    0.0000
     atom:   75    charge:    1.8138    magn:    0.1188    constr:    0.0000
     atom:   76    charge:    2.8687    magn:    0.0179    constr:    0.0000
     atom:   77    charge:    2.8685    magn:    0.0001    constr:    0.0000
     atom:   78    charge:    2.8675    magn:    0.0002    constr:    0.0000
     atom:   79    charge:    2.8694    magn:   -0.0000    constr:    0.0000
     atom:   80    charge:    2.8751    magn:   -0.0001    constr:    0.0000
     atom:   81    charge:    2.8687    magn:    0.0021    constr:    0.0000
     atom:   82    charge:    2.8635    magn:    0.0194    constr:    0.0000
     atom:   83    charge:    2.8714    magn:    0.0079    constr:    0.0000
     atom:   84    charge:    2.8726    magn:    0.0047    constr:    0.0000
     atom:   85    charge:    2.8690    magn:    0.0006    constr:    0.0000
     atom:   86    charge:    2.8700    magn:   -0.0001    constr:    0.0000
     atom:   87    charge:    2.8694    magn:   -0.0000    constr:    0.0000
     atom:   88    charge:    2.8694    magn:    0.0003    constr:    0.0000
     atom:   89    charge:    2.8700    magn:    0.0003    constr:    0.0000
     atom:   90    charge:    2.8684    magn:    0.0054    constr:    0.0000
     atom:   91    charge:    2.8715    magn:   -0.0002    constr:    0.0000
     atom:   92    charge:    2.8683    magn:   -0.0001    constr:    0.0000
     atom:   93    charge:    2.8690    magn:    0.0006    constr:    0.0000
     atom:   94    charge:    2.8675    magn:    0.0002    constr:    0.0000
     atom:   95    charge:    2.8684    magn:   -0.0000    constr:    0.0000
     atom:   96    charge:    2.8675    magn:    0.0000    constr:    0.0000
     atom:   97    charge:    2.8689    magn:    0.0004    constr:    0.0000
     atom:   98    charge:    2.8683    magn:    0.0007    constr:    0.0000

     total cpu time spent up to now is      466.6 secs

     End of self-consistent calculation

 ------ SPIN UP ------------


          k = 0.0000 0.0000 0.0000 ( 77079 PWs)   bands (ev):

   -21.7520 -21.5209 -21.3577 -21.3575 -21.3331 -21.2937 -21.2165 -20.7998
   -20.6177 -20.6041 -20.5919 -20.5300 -20.5063 -20.3640 -20.2734 -20.2670
   -20.2231 -20.1232 -20.0727 -19.5339 -19.3748 -19.3613 -19.3548 -19.3526
   -19.3443 -19.3319 -19.3259 -19.3021 -19.2678 -19.1402 -19.1370 -18.9931
   -18.9515 -18.9467 -18.8987 -18.7632 -18.7337 -18.5134 -18.5102 -18.4866
   -18.4752 -18.4079 -18.3889 -18.3535 -18.3267 -18.3154 -18.2907 -17.0328
   -15.3439 -13.2232 -12.7401 -12.7379 -12.7177 -12.6933 -12.6878 -12.6128
   -12.5332 -12.5177 -12.4926 -12.4698 -12.3944 -12.1218 -12.0499 -12.0187
   -12.0092 -11.9917 -11.9497 -11.5226 -11.3793 -11.3742 -11.3565 -11.3481
   -11.3399 -11.3278 -11.3149 -11.2865 -11.2664 -11.1177 -11.0471 -10.8195
   -10.6900 -10.6831 -10.6553 -10.6455 -10.5316 -10.0178  -9.9927  -9.9609
    -9.9056  -9.8640  -9.8009  -9.3711  -9.3072  -9.2745  -9.2649  -9.2509
    -9.2470  -9.1854  -8.9909  -8.8750  -8.8713  -8.8606  -8.8510  -8.8324
    -8.8310  -8.8271  -8.8207  -8.8113  -8.8039  -8.7955  -8.7938  -8.7930
    -8.7709  -8.7681  -8.7635  -8.7513  -8.7315  -8.6970  -8.6731  -8.6675
    -8.5196  -8.5092  -8.1598  -8.1430  -8.1351  -8.1037  -8.0408  -7.8792
    -7.8730  -7.7944  -7.7772  -7.7665  -7.7256  -7.7195  -7.5204  -7.4673
    -7.4561  -7.4353  -7.4209  -7.4087  -7.3799  -7.3594  -7.3558  -7.3185
    -7.3159  -7.3085  -7.2760  -7.2371  -7.2291  -7.2191  -7.2010  -7.0689
    -6.9827  -6.9467  -6.9108  -6.8173  -6.6734  -6.6353  -6.1771  -6.1531
    -6.1474  -6.1129  -6.0591  -6.0401  -6.0298  -6.0255  -6.0189  -6.0182
    -6.0012  -5.9991  -5.9793  -5.9453  -5.9006  -5.8257  -5.8119  -5.7774
    -5.4742  -5.4275  -5.4224  -5.3920  -5.3460  -5.2659  -5.2113  -5.1703
    -4.7672  -4.7419  -4.7203  -4.7136  -4.6585  -4.6178  -4.5108  -4.4833
    -4.4756  -4.4717  -4.3204  -3.7875  -0.1517   0.1893   0.7081   0.7439
     0.7478   0.7617   0.7779   0.7802   0.7940   0.8208   0.8269   0.8300
     0.8370   0.8489   0.8515   0.8998   0.9079   0.9263   0.9368   0.9535
     0.9956   1.1879   1.2640   1.2651   1.2682   1.3079   1.3293   1.3328
     1.3366   1.3427   1.3484   1.3660   1.3802   1.4384   1.4409   1.4428
     1.4498   1.4507   1.4707   1.8849   2.1121   2.1164   2.1191   2.1235
     2.1335   2.1472   2.3392   2.3477   2.3590

 ------ SPIN DOWN ----------


          k = 0.0000 0.0000 0.0000 ( 77079 PWs)   bands (ev):

   -21.7466 -21.5179 -21.3563 -21.3546 -21.3311 -21.2837 -21.2067 -20.7967
   -20.6109 -20.5978 -20.5884 -20.5239 -20.5014 -20.3626 -20.2656 -20.2585
   -20.2188 -20.1080 -20.0607 -19.5251 -19.3717 -19.3565 -19.3519 -19.3489
   -19.3402 -19.3282 -19.3126 -19.2914 -19.2631 -19.1341 -19.1292 -18.9890
   -18.9459 -18.9395 -18.8930 -18.7511 -18.7232 -18.5053 -18.5046 -18.4800
   -18.4712 -18.4036 -18.3805 -18.3505 -18.3227 -18.3085 -18.2815 -16.8881
   -15.0597 -13.1770 -12.7358 -12.7356 -12.7148 -12.6895 -12.6854 -12.6093
   -12.5311 -12.5145 -12.4887 -12.4556 -12.3849 -12.1161 -12.0473 -12.0148
   -12.0044 -11.9818 -11.9415 -11.5115 -11.3725 -11.3703 -11.3546 -11.3462
   -11.3379 -11.3255 -11.3095 -11.2784 -11.2573 -11.0884 -11.0214 -10.8159
   -10.6881 -10.6807 -10.6475 -10.6412 -10.5166 -10.0133  -9.9871  -9.9555
    -9.8963  -9.8503  -9.7840  -9.3683  -9.2886  -9.2668  -9.2609  -9.2466
    -9.2447  -9.1797  -8.9880  -8.8720  -8.8559  -8.8517  -8.8488  -8.8294
    -8.8283  -8.8226  -8.8181  -8.8091  -8.8008  -8.7899  -8.7892  -8.7889
    -8.7641  -8.7625  -8.7600  -8.7239  -8.7176  -8.6598  -8.6535  -8.6337
    -8.4942  -8.4896  -8.1579  -8.1367  -8.1330  -8.0948  -8.0320  -7.8691
    -7.8528  -7.7796  -7.7647  -7.7558  -7.6967  -7.6795  -7.5151  -7.4652
    -7.4535  -7.4332  -7.4194  -7.4075  -7.3760  -7.3574  -7.3530  -7.3046
    -7.3017  -7.2983  -7.2632  -7.2098  -7.1845  -7.1768  -7.1730  -7.0459
    -6.9807  -6.9451  -6.9001  -6.7946  -6.6526  -6.6037  -6.1672  -6.1497
    -6.1454  -6.1109  -6.0442  -6.0333  -6.0198  -6.0137  -6.0108  -6.0062
    -5.9893  -5.9815  -5.9518  -5.9304  -5.8280  -5.7903  -5.7733  -5.7462
    -5.4636  -5.4151  -5.4055  -5.3780  -5.2751  -5.2029  -5.1638  -5.1218
    -4.7481  -4.7298  -4.7038  -4.6986  -4.6193  -4.6011  -4.5030  -4.4740
    -4.4608  -4.4567  -4.1822  -3.1915  -0.0648   0.1909   0.7081   0.7480
     0.7526   0.7728   0.7913   0.7926   0.7948   0.8204   0.8269   0.8299
     0.8414   0.8487   0.8536   0.9115   0.9148   0.9344   0.9437   0.9736
     1.0421   1.2030   1.2720   1.2774   1.2870   1.3285   1.3328   1.3356
     1.3439   1.3456   1.3485   1.3884   1.4088   1.4370   1.4399   1.4417
     1.4486   1.4500   1.4731   1.8856   2.1177   2.1187   2.1251   2.1336
     2.1379   2.3436   2.3518   2.3646   2.3682

     highest occupied, lowest unoccupied level (ev):    -3.7875   -3.1915

!    total energy              =   -1940.44389243 Ry
     Harris-Foulkes estimate   =   -1940.44389255 Ry
     estimated scf accuracy    <       0.00000018 Ry

     total all-electron energy =     -7770.268369 Ry

     The total energy is the sum of the following terms:

     one-electron contribution =  -10681.17326110 Ry
     hartree contribution      =    5426.61301965 Ry
     xc contribution           =    -431.04805985 Ry
     ewald contribution        =    4388.62168141 Ry
     DFT-D3 Dispersion         =      -0.27079554 Ry
     one-center paw contrib.   =    -643.18647699 Ry

     total magnetization       =     1.00 Bohr mag/cell
     absolute magnetization    =     1.21 Bohr mag/cell

     convergence has been achieved in  13 iterations

     negative rho (up, down):  4.896E-01 5.421E-03

     Forces acting on atoms (cartesian axes, Ry/au):

     atom    1 type  1   force =    -0.00090801   -0.00167978    0.00000000
     atom    2 type  1   force =     0.00222904   -0.00162924    0.00000000
     atom    3 type  1   force =    -0.00225773    0.00420732    0.00000000
     atom    4 type  1   force =    -0.00042189   -0.00094415    0.00000000
     atom    5 type  1   force =     0.00243733   -0.00232148    0.00000000
     atom    6 type  1   force =     0.00127815    0.00134191    0.00000000
     atom    7 type  1   force =    -0.00209725    0.00120888    0.00000000
     atom    8 type  1   force =    -0.00337270   -0.00347269    0.00000000
     atom    9 type  1   force =    -0.00463136    0.00389932    0.00000000
     atom   10 type  1   force =     0.00110216   -0.00136494    0.00000000
     atom   11 type  1   force =    -0.00236318   -0.00007807    0.00000000
     atom   12 type  1   force =    -0.00113010   -0.00229854    0.00000000
     atom   13 type  1   force =     0.00109566   -0.00063383    0.00000000
     atom   14 type  1   force =    -0.00052435   -0.00177920    0.00000000
     atom   15 type  1   force =     0.00186954   -0.00281273    0.00000000
     atom   16 type  1   force =     0.00122870   -0.00215070    0.00000000
     atom   17 type  1   force =     0.00726818   -0.09311321    0.00000000
     atom   18 type  1   force =    -0.07807074    0.06712387    0.00000000
     atom   19 type  1   force =     0.00795851   -0.00459473    0.00000000
     atom   20 type  1   force =     0.00142154    0.00212900    0.00000000
     atom   21 type  1   force =     0.00322674   -0.00094961    0.00000000
     atom   22 type  1   force =     0.00320933   -0.00396224    0.00000000
     atom   23 type  1   force =     0.00085632   -0.00237767    0.00000000
     atom   24 type  1   force =    -0.01176996   -0.00803755    0.00000000
     atom   25 type  4   force =    -0.00367757    0.00219090    0.00000000
     atom   26 type  1   force =    -0.09715427    0.03404935    0.00000000
     atom   27 type  1   force =    -0.00109815    0.00207739    0.00000000
     atom   28 type  1   force =     0.00060156    0.00083806    0.00000000
     atom   29 type  1   force =    -0.00310376   -0.00308129    0.00000000
     atom   30 type  1   force =     0.00084155   -0.00187491    0.00000000
     atom   31 type  1   force =     0.00240656   -0.00138607    0.00000000
     atom   32 type  1   force =     0.00107107    0.01422752    0.00000000
     atom   33 type  1   force =     0.08425755    0.04024694    0.00000000
     atom   34 type  1   force =     0.00172432   -0.00028737    0.00000000
     atom   35 type  1   force =    -0.00476491   -0.00015386    0.00000000
     atom   36 type  1   force =    -0.00132049   -0.00173359    0.00000000
     atom   37 type  1   force =    -0.00138717    0.00080111    0.00000000
     atom   38 type  1   force =     0.00204475    0.00020951    0.00000000
     atom   39 type  1   force =     0.00248163    0.00045129    0.00000000
     atom   40 type  1   force =     0.00247186    0.00001033    0.00000000
     atom   41 type  1   force =    -0.00568970    0.00206157    0.00000000
     atom   42 type  1   force =     0.00253027   -0.00112016    0.00000000
     atom   43 type  1   force =     0.00358315   -0.00206963    0.00000000
     atom   44 type  1   force =     0.00083892    0.00201183    0.00000000
     atom   45 type  1   force =     0.00111852    0.00422894    0.00000000
     atom   46 type  1   force =     0.00503717   -0.00079946    0.00000000
     atom   47 type  1   force =     0.00336649   -0.00021332    0.00000000
     atom   48 type  1   force =     0.00131690    0.00465268    0.00000000
     atom   49 type  1   force =     0.00099783    0.00162400    0.00000000
     atom   50 type  2   force =     0.00051667   -0.00012712    0.00000000
     atom   51 type  2   force =    -0.00062407   -0.00271373    0.00000000
     atom   52 type  2   force =     0.00157481    0.00047581    0.00000000
     atom   53 type  2   force =    -0.00294566   -0.00047415    0.00000000
     atom   54 type  2   force =    -0.00152705   -0.00041734    0.00000000
     atom   55 type  2   force =    -0.00095146   -0.00004227    0.00000000
     atom   56 type  2   force =    -0.00059450    0.00034603    0.00000000
     atom   57 type  2   force =    -0.00021942    0.00094352    0.00000000
     atom   58 type  2   force =     0.00212661    0.00129770    0.00000000
     atom   59 type  2   force =    -0.00104349   -0.01658441    0.00000000
     atom   60 type  2   force =    -0.00892353    0.00505962    0.00000000
     atom   61 type  2   force =    -0.00486956   -0.00081972    0.00000000
     atom   62 type  2   force =    -0.00140955    0.00081467    0.00000000
     atom   63 type  2   force =    -0.00043887    0.00084806    0.00000000
     atom   64 type  2   force =     0.00006940    0.00091372    0.00000000
     atom   65 type  2   force =     0.00049413    0.00039494    0.00000000
     atom   66 type  2   force =     0.00609388   -0.00848334    0.00000000
     atom   67 type  3   force =     0.15133688    0.06200152    0.00000000
     atom   68 type  2   force =    -0.03260670    0.01882611    0.00000000
     atom   69 type  2   force =    -0.00171286    0.00462581    0.00000000
     atom   70 type  2   force =    -0.00039895    0.00152881    0.00000000
     atom   71 type  2   force =    -0.00038478    0.00113935    0.00000000
     atom   72 type  2   force =    -0.00083089    0.00179188    0.00000000
     atom   73 type  2   force =    -0.00084416    0.00876911    0.00000000
     atom   74 type  2   force =    -0.05151656    0.02973452    0.00000000
     atom   75 type  5   force =     0.02197008   -0.16211311    0.00000000
     atom   76 type  2   force =    -0.00885541    0.00521998    0.00000000
     atom   77 type  2   force =    -0.00105385    0.00277593    0.00000000
     atom   78 type  2   force =    -0.00029878    0.00006763    0.00000000
     atom   79 type  2   force =    -0.00058786    0.00034574    0.00000000
     atom   80 type  2   force =    -0.00142319    0.00081801    0.00000000
     atom   81 type  2   force =    -0.00801083   -0.00366248    0.00000000
     atom   82 type  2   force =     0.01040993   -0.00105492    0.00000000
     atom   83 type  2   force =     0.01382337    0.00921028    0.00000000
     atom   84 type  2   force =     0.00035779   -0.00159403    0.00000000
     atom   85 type  2   force =     0.00016700   -0.00015794    0.00000000
     atom   86 type  2   force =    -0.00033813    0.00019692    0.00000000
     atom   87 type  2   force =    -0.00059151    0.00033555    0.00000000
     atom   88 type  2   force =    -0.00196119   -0.00017794    0.00000000
     atom   89 type  2   force =    -0.00009080   -0.00062725    0.00000000
     atom   90 type  2   force =    -0.00004955   -0.00249072    0.00000000
     atom   91 type  2   force =     0.00203901    0.00190919    0.00000000
     atom   92 type  2   force =     0.00046685   -0.00026718    0.00000000
     atom   93 type  2   force =     0.00022453   -0.00006343    0.00000000
     atom   94 type  2   force =    -0.00021002    0.00022517    0.00000000
     atom   95 type  2   force =    -0.00117875   -0.00023693    0.00000000
     atom   96 type  2   force =    -0.00075285   -0.00051887    0.00000000
     atom   97 type  2   force =    -0.00092566   -0.00028128    0.00000000
     atom   98 type  2   force =     0.00037146   -0.00037911    0.00000000

     Total force =     0.315157     Total SCF correction =     0.000534


     Computing stress (Cartesian axis) and pressure


     negative rho (up, down):  4.896E-01 5.421E-03
          total   stress  (Ry/bohr**3)                   (kbar)     P=    1.08
   0.00001500  -0.00000395   0.00000000          2.21     -0.58      0.00
  -0.00000395   0.00001044   0.00000000         -0.58      1.54      0.00
   0.00000000   0.00000000  -0.00000344          0.00      0.00     -0.51


     BFGS Geometry Optimization

     number of scf cycles    =   1
     number of bfgs steps    =   0

     enthalpy new            =   -1940.4438924262 Ry

     new trust radius        =       0.1635950646 bohr
     new conv_thr            =       0.0000010000 Ry

     new unit-cell volume =  36127.55675 a.u.^3 (  5353.55150 Ang^3 )
     density =      0.36415 g/cm^3

CELL_PARAMETERS (alat= 33.23461096)
   0.999709254  -0.000098647   0.000000000
  -0.499940058   0.865724280   0.000000000
   0.000000000   0.000000000   1.137203616

ATOMIC_POSITIONS (crystal)
B        0.047566683   0.095188045   0.500000000
B        0.047657668   0.238041900   0.500000000
B        0.047626135   0.381091898   0.500000000
B        0.047595131   0.523779799   0.500000000
B        0.047654005   0.666594643   0.500000000
B        0.047680686   0.809566985   0.500000000
B        0.047581091   0.952418806   0.500000000
B        0.190324857   0.095122653   0.500000000
B        0.190408007   0.238234112   0.500000000
B        0.190485265   0.380904159   0.500000000
B        0.190411998   0.523810287   0.500000000
B        0.190410525   0.666592595   0.500000000
B        0.190497778   0.809502157   0.500000000
B        0.190432952   0.952319267   0.500000000
B        0.333338881   0.095143903   0.500000000
B        0.333331094   0.238015019   0.500000000
B        0.331924849   0.377708350   0.500000000
B        0.332143698   0.526146700   0.500000000
B        0.333492751   0.666507255   0.500000000
B        0.333407303   0.809589511   0.500000000
B        0.333405293   0.952346010   0.500000000
B        0.476215283   0.095107518   0.500000000
B        0.476171645   0.238010933   0.500000000
B        0.475693426   0.380662815   0.500000000
C2       0.476114733   0.523888795   0.500000000
B        0.473853664   0.667856304   0.500000000
B        0.476190047   0.809587717   0.500000000
B        0.476220057   0.952404891   0.500000000
B        0.618910728   0.095138147   0.500000000
B        0.619043356   0.238035035   0.500000000
B        0.619098975   0.380901200   0.500000000
B        0.619337316   0.524307118   0.500000000
B        0.622290935   0.668074622   0.500000000
B        0.619095308   0.809514202   0.500000000
B        0.618908236   0.952373676   0.500000000
B        0.761840313   0.095181421   0.500000000
B        0.761878562   0.238121449   0.500000000
B        0.761964988   0.380956674   0.500000000
B        0.761988968   0.523828496   0.500000000
B        0.761984813   0.666668873   0.500000000
B        0.761765981   0.809592006   0.500000000
B        0.761958168   0.952342180   0.500000000
B        0.904828520   0.095171433   0.500000000
B        0.904818539   0.238159737   0.500000000
B        0.904861918   0.381089285   0.500000000
B        0.904892493   0.523784674   0.500000000
B        0.904855961   0.666661098   0.500000000
B        0.904877143   0.809674986   0.500000000
B        0.904811829   0.952433239   0.500000000
N        0.095257196   0.047617504   0.500000000
N        0.095175728   0.190389036   0.500000000
N        0.095296035   0.333348529   0.500000000
N        0.095145977   0.476172001   0.500000000
N        0.095189678   0.619039916   0.500000000
N        0.095210966   0.761906892   0.500000000
N        0.095229807   0.904770339   0.500000000
N        0.238107566   0.047652084   0.500000000
N        0.238184360   0.190523607   0.500000000
N        0.237771925   0.332755396   0.500000000
N        0.237913506   0.476364371   0.500000000
N        0.237937813   0.619021341   0.500000000
N        0.238065953   0.761934092   0.500000000
N        0.238093167   0.904789137   0.500000000
N        0.380965792   0.047652359   0.500000000
N        0.380973498   0.190489608   0.500000000
N        0.380983830   0.333032286   0.500000000
C1       0.386580004   0.478344096   0.500000000
N        0.380295664   0.619704368   0.500000000
N        0.380979000   0.762062145   0.500000000
N        0.380960138   0.904810241   0.500000000
N        0.523819995   0.047662161   0.500000000
N        0.523817935   0.190544032   0.500000000
N        0.523938824   0.333633945   0.500000000
N        0.522777545   0.477222008   0.500000000
C3       0.521654917   0.613418231   0.500000000
N        0.523635650   0.762087251   0.500000000
N        0.523828039   0.904853600   0.500000000
N        0.666664953   0.047622943   0.500000000
N        0.666659241   0.190493755   0.500000000
N        0.666638369   0.333361440   0.500000000
N        0.666366065   0.476060863   0.500000000
N        0.666967869   0.619015505   0.500000000
N        0.667244330   0.762228575   0.500000000
N        0.666651076   0.904704232   0.500000000
N        0.809523793   0.047613790   0.500000000
N        0.809517365   0.190482723   0.500000000
N        0.809506289   0.333340735   0.500000000
N        0.809456123   0.476182010   0.500000000
N        0.809510485   0.619026437   0.500000000
N        0.809476720   0.761815634   0.500000000
N        0.809611197   0.904824685   0.500000000
N        0.952387488   0.047612635   0.500000000
N        0.952386377   0.190476285   0.500000000
N        0.952376999   0.333335056   0.500000000
N        0.952337841   0.476179988   0.500000000
N        0.952347720   0.619034141   0.500000000
N        0.952347958   0.761892450   0.500000000
N        0.952382670   0.904742970   0.500000000



     Writing output data file C2Cn.save/
     NEW-OLD atomic charge density approx. for the potential
     NEW k-points:
   0.0000000   0.0000000   0.0000000   1.0000000
   0.0000000   0.0000000   0.0000000   1.0000000

     Check: negative core charge=   -0.000006

     negative rho (up, down):  4.897E-01 1.693E-03
     extrapolated charge  391.24856, renormalised to  391.00000

     total cpu time spent up to now is      485.7 secs

     Self-consistent Calculation

     iteration #  1     ecut=    40.00 Ry     beta= 0.70
     CG style diagonalization
     c_bands:  3 eigenvalues not converged
     c_bands:  2 eigenvalues not converged
     ethr =  1.00E-06,  avg # of iterations = 21.1

     negative rho (up, down):  4.863E-01 6.681E-03

     total cpu time spent up to now is      703.0 secs

     total energy              =   -1940.43909392 Ry
     Harris-Foulkes estimate   =   -1933.90800005 Ry
     estimated scf accuracy    <       0.05746002 Ry

     total magnetization       =     1.00 Bohr mag/cell
     absolute magnetization    =     1.20 Bohr mag/cell

     iteration #  2     ecut=    40.00 Ry     beta= 0.70
     CG style diagonalization
     c_bands:  1 eigenvalues not converged
     c_bands:  2 eigenvalues not converged
     ethr =  1.47E-05,  avg # of iterations =  4.1

     negative rho (up, down):  4.870E-01 6.099E-03

     total cpu time spent up to now is      739.3 secs

     total energy              =   -1940.45064640 Ry
     Harris-Foulkes estimate   =   -1940.48278283 Ry
     estimated scf accuracy    <       0.06503628 Ry

     total magnetization       =     1.00 Bohr mag/cell
     absolute magnetization    =     1.19 Bohr mag/cell

     iteration #  3     ecut=    40.00 Ry     beta= 0.70
     CG style diagonalization
     ethr =  1.47E-05,  avg # of iterations =  3.4

     negative rho (up, down):  4.879E-01 5.544E-03

     total cpu time spent up to now is      767.6 secs

     total energy              =   -1940.46424910 Ry
     Harris-Foulkes estimate   =   -1940.46504631 Ry
     estimated scf accuracy    <       0.00166245 Ry

     total magnetization       =     1.00 Bohr mag/cell
     absolute magnetization    =     1.19 Bohr mag/cell

     iteration #  4     ecut=    40.00 Ry     beta= 0.70
     CG style diagonalization
     c_bands:  1 eigenvalues not converged
     ethr =  4.25E-07,  avg # of iterations =  4.0

     negative rho (up, down):  4.884E-01 5.409E-03

     total cpu time spent up to now is      802.6 secs

     total energy              =   -1940.46496966 Ry
     Harris-Foulkes estimate   =   -1940.46517844 Ry
     estimated scf accuracy    <       0.00056893 Ry

     total magnetization       =     1.00 Bohr mag/cell
     absolute magnetization    =     1.19 Bohr mag/cell

     iteration #  5     ecut=    40.00 Ry     beta= 0.70
     CG style diagonalization
     ethr =  1.46E-07,  avg # of iterations =  3.3

     negative rho (up, down):  4.885E-01 5.407E-03

     total cpu time spent up to now is      829.6 secs

     total energy              =   -1940.46506770 Ry
     Harris-Foulkes estimate   =   -1940.46507415 Ry
     estimated scf accuracy    <       0.00002299 Ry

     total magnetization       =     1.00 Bohr mag/cell
     absolute magnetization    =     1.20 Bohr mag/cell

     iteration #  6     ecut=    40.00 Ry     beta= 0.70
     CG style diagonalization
     ethr =  5.88E-09,  avg # of iterations =  4.0

     negative rho (up, down):  4.886E-01 5.427E-03

     total cpu time spent up to now is      864.6 secs

     total energy              =   -1940.46507716 Ry
     Harris-Foulkes estimate   =   -1940.46507905 Ry
     estimated scf accuracy    <       0.00000614 Ry

     total magnetization       =     1.00 Bohr mag/cell
     absolute magnetization    =     1.20 Bohr mag/cell

     iteration #  7     ecut=    40.00 Ry     beta= 0.70
     CG style diagonalization
     ethr =  1.57E-09,  avg # of iterations =  3.6

     negative rho (up, down):  4.886E-01 5.450E-03
 
     Magnetic moment per site:
     atom:    1    charge:    0.8808    magn:   -0.0000    constr:    0.0000
     atom:    2    charge:    0.8811    magn:    0.0003    constr:    0.0000
     atom:    3    charge:    0.8801    magn:    0.0007    constr:    0.0000
     atom:    4    charge:    0.8801    magn:   -0.0000    constr:    0.0000
     atom:    5    charge:    0.8804    magn:    0.0000    constr:    0.0000
     atom:    6    charge:    0.8813    magn:    0.0001    constr:    0.0000
     atom:    7    charge:    0.8805    magn:   -0.0000    constr:    0.0000
     atom:    8    charge:    0.8819    magn:    0.0001    constr:    0.0000
     atom:    9    charge:    0.8858    magn:   -0.0003    constr:    0.0000
     atom:   10    charge:    0.8780    magn:    0.0030    constr:    0.0000
     atom:   11    charge:    0.8843    magn:    0.0005    constr:    0.0000
     atom:   12    charge:    0.8814    magn:    0.0001    constr:    0.0000
     atom:   13    charge:    0.8821    magn:   -0.0000    constr:    0.0000
     atom:   14    charge:    0.8813    magn:    0.0001    constr:    0.0000
     atom:   15    charge:    0.8824    magn:   -0.0001    constr:    0.0000
     atom:   16    charge:    0.8868    magn:    0.0002    constr:    0.0000
     atom:   17    charge:    0.8982    magn:    0.0028    constr:    0.0000
     atom:   18    charge:    0.8874    magn:    0.0081    constr:    0.0000
     atom:   19    charge:    0.8939    magn:   -0.0004    constr:    0.0000
     atom:   20    charge:    0.8814    magn:    0.0001    constr:    0.0000
     atom:   21    charge:    0.8804    magn:    0.0000    constr:    0.0000
     atom:   22    charge:    0.8804    magn:    0.0000    constr:    0.0000
     atom:   23    charge:    0.8801    magn:    0.0003    constr:    0.0000
     atom:   24    charge:    0.8765    magn:   -0.0006    constr:    0.0000
     atom:   25    charge:    1.7950    magn:   -0.0263    constr:    0.0000
     atom:   26    charge:    0.8874    magn:    0.0081    constr:    0.0000
     atom:   27    charge:    0.8843    magn:    0.0005    constr:    0.0000
     atom:   28    charge:    0.8801    magn:   -0.0000    constr:    0.0000
     atom:   29    charge:    0.8805    magn:    0.0001    constr:    0.0000
     atom:   30    charge:    0.8816    magn:    0.0000    constr:    0.0000
     atom:   31    charge:    0.8836    magn:   -0.0003    constr:    0.0000
     atom:   32    charge:    0.8765    magn:   -0.0006    constr:    0.0000
     atom:   33    charge:    0.8981    magn:    0.0028    constr:    0.0000
     atom:   34    charge:    0.8780    magn:    0.0030    constr:    0.0000
     atom:   35    charge:    0.8801    magn:    0.0007    constr:    0.0000
     atom:   36    charge:    0.8820    magn:    0.0003    constr:    0.0000
     atom:   37    charge:    0.8817    magn:   -0.0000    constr:    0.0000
     atom:   38    charge:    0.8816    magn:    0.0000    constr:    0.0000
     atom:   39    charge:    0.8801    magn:    0.0003    constr:    0.0000
     atom:   40    charge:    0.8868    magn:    0.0002    constr:    0.0000
     atom:   41    charge:    0.8858    magn:   -0.0003    constr:    0.0000
     atom:   42    charge:    0.8811    magn:    0.0003    constr:    0.0000
     atom:   43    charge:    0.8818    magn:   -0.0000    constr:    0.0000
     atom:   44    charge:    0.8820    magn:    0.0003    constr:    0.0000
     atom:   45    charge:    0.8805    magn:    0.0001    constr:    0.0000
     atom:   46    charge:    0.8804    magn:    0.0000    constr:    0.0000
     atom:   47    charge:    0.8824    magn:   -0.0001    constr:    0.0000
     atom:   48    charge:    0.8819    magn:    0.0001    constr:    0.0000
     atom:   49    charge:    0.8808    magn:   -0.0000    constr:    0.0000
     atom:   50    charge:    2.8701    magn:    0.0004    constr:    0.0000
     atom:   51    charge:    2.8728    magn:   -0.0001    constr:    0.0000
     atom:   52    charge:    2.8720    magn:    0.0026    constr:    0.0000
     atom:   53    charge:    2.8705    magn:    0.0000    constr:    0.0000
     atom:   54    charge:    2.8700    magn:    0.0001    constr:    0.0000
     atom:   55    charge:    2.8730    magn:    0.0000    constr:    0.0000
     atom:   56    charge:    2.8721    magn:   -0.0000    constr:    0.0000
     atom:   57    charge:    2.8689    magn:    0.0003    constr:    0.0000
     atom:   58    charge:    2.8674    magn:    0.0038    constr:    0.0000
     atom:   59    charge:    2.8810    magn:    0.0056    constr:    0.0000
     atom:   60    charge:    2.8755    magn:    0.0113    constr:    0.0000
     atom:   61    charge:    2.8690    magn:    0.0010    constr:    0.0000
     atom:   62    charge:    2.8711    magn:   -0.0001    constr:    0.0000
     atom:   63    charge:    2.8730    magn:    0.0000    constr:    0.0000
     atom:   64    charge:    2.8684    magn:    0.0000    constr:    0.0000
     atom:   65    charge:    2.8706    magn:    0.0003    constr:    0.0000
     atom:   66    charge:    2.8791    magn:    0.0160    constr:    0.0000
     atom:   67    charge:    1.7606    magn:    0.1258    constr:    0.0000
     atom:   68    charge:    2.8977    magn:   -0.0026    constr:    0.0000
     atom:   69    charge:    2.8690    magn:    0.0010    constr:    0.0000
     atom:   70    charge:    2.8700    magn:    0.0001    constr:    0.0000
     atom:   71    charge:    2.8711    magn:    0.0000    constr:    0.0000
     atom:   72    charge:    2.8696    magn:    0.0002    constr:    0.0000
     atom:   73    charge:    2.8669    magn:    0.0013    constr:    0.0000
     atom:   74    charge:    2.8382    magn:   -0.0026    constr:    0.0000
     atom:   75    charge:    1.7606    magn:    0.1257    constr:    0.0000
     atom:   76    charge:    2.8755    magn:    0.0113    constr:    0.0000
     atom:   77    charge:    2.8705    magn:    0.0000    constr:    0.0000
     atom:   78    charge:    2.8682    magn:    0.0000    constr:    0.0000
     atom:   79    charge:    2.8699    magn:   -0.0000    constr:    0.0000
     atom:   80    charge:    2.8755    magn:   -0.0000    constr:    0.0000
     atom:   81    charge:    2.8669    magn:    0.0013    constr:    0.0000
     atom:   82    charge:    2.8791    magn:    0.0160    constr:    0.0000
     atom:   83    charge:    2.8810    magn:    0.0056    constr:    0.0000
     atom:   84    charge:    2.8720    magn:    0.0026    constr:    0.0000
     atom:   85    charge:    2.8688    magn:    0.0003    constr:    0.0000
     atom:   86    charge:    2.8695    magn:   -0.0001    constr:    0.0000
     atom:   87    charge:    2.8699    magn:   -0.0000    constr:    0.0000
     atom:   88    charge:    2.8696    magn:    0.0002    constr:    0.0000
     atom:   89    charge:    2.8706    magn:    0.0003    constr:    0.0000
     atom:   90    charge:    2.8674    magn:    0.0038    constr:    0.0000
     atom:   91    charge:    2.8728    magn:   -0.0001    constr:    0.0000
     atom:   92    charge:    2.8705    magn:   -0.0000    constr:    0.0000
     atom:   93    charge:    2.8688    magn:    0.0003    constr:    0.0000
     atom:   94    charge:    2.8682    magn:    0.0000    constr:    0.0000
     atom:   95    charge:    2.8711    magn:    0.0000    constr:    0.0000
     atom:   96    charge:    2.8684    magn:    0.0000    constr:    0.0000
     atom:   97    charge:    2.8689    magn:    0.0003    constr:    0.0000
     atom:   98    charge:    2.8701    magn:    0.0004    constr:    0.0000

     total cpu time spent up to now is      894.5 secs

     End of self-consistent calculation

 ------ SPIN UP ------------


          k = 0.0000 0.0000 0.0000 ( 77079 PWs)   bands (ev):

   -21.7374 -21.4849 -21.3571 -21.3565 -21.3446 -21.3247 -21.2599 -20.8122
   -20.6314 -20.6213 -20.6184 -20.5440 -20.5241 -20.3852 -20.2801 -20.2775
   -20.2716 -20.1465 -20.1177 -19.5632 -19.3810 -19.3702 -19.3642 -19.3555
   -19.3549 -19.3506 -19.3473 -19.3432 -19.3371 -19.1441 -19.1436 -19.0160
   -18.9613 -18.9584 -18.9519 -18.7730 -18.7630 -18.5312 -18.5165 -18.5164
   -18.4936 -18.4272 -18.4187 -18.3618 -18.3452 -18.3342 -18.3326 -17.1003
   -15.0491 -13.0130 -12.7514 -12.7402 -12.7359 -12.6901 -12.6845 -12.6226
   -12.5434 -12.5321 -12.5036 -12.4603 -12.4114 -12.1151 -12.0583 -12.0478
   -12.0283 -11.9475 -11.9339 -11.5029 -11.4069 -11.3800 -11.3697 -11.3644
   -11.3544 -11.3452 -11.3420 -11.3218 -11.2653 -11.0862 -11.0042 -10.8400
   -10.6936 -10.6869 -10.6729 -10.6501 -10.4966 -10.0469 -10.0378  -9.9963
    -9.8820  -9.8581  -9.7810  -9.3686  -9.3126  -9.3033  -9.2775  -9.2595
    -9.2383  -9.1914  -9.0090  -8.9148  -8.9122  -8.8721  -8.8655  -8.8617
    -8.8442  -8.8336  -8.8266  -8.8206  -8.8196  -8.8151  -8.8064  -8.8059
    -8.7927  -8.7925  -8.7807  -8.7742  -8.7322  -8.7291  -8.6770  -8.6107
    -8.4575  -8.4561  -8.1558  -8.1542  -8.1404  -8.1201  -8.1029  -7.8872
    -7.8620  -7.8044  -7.7934  -7.7889  -7.7256  -7.7218  -7.5380  -7.4995
    -7.4910  -7.4332  -7.4230  -7.4143  -7.4080  -7.3870  -7.3782  -7.3583
    -7.3246  -7.3213  -7.3147  -7.2780  -7.2368  -7.2198  -7.2151  -7.0039
    -6.9758  -6.9742  -6.9705  -6.7727  -6.6073  -6.4756  -6.2288  -6.1846
    -6.1537  -6.1438  -6.0913  -6.0440  -6.0343  -6.0334  -6.0224  -6.0220
    -6.0181  -6.0148  -6.0124  -6.0049  -5.8598  -5.7871  -5.7247  -5.6116
    -5.5029  -5.4350  -5.4287  -5.4199  -5.3363  -5.2251  -4.9351  -4.8403
    -4.7760  -4.7467  -4.7412  -4.7258  -4.6599  -4.6193  -4.5215  -4.4925
    -4.4844  -4.4824  -4.3138  -3.4416   0.1889   0.2312   0.7092   0.7413
     0.7481   0.7496   0.7654   0.7768   0.7945   0.8247   0.8272   0.8277
     0.8292   0.8433   0.8438   0.9057   0.9057   0.9178   0.9308   0.9374
     0.9985   1.1856   1.2502   1.2674   1.2676   1.2966   1.3072   1.3320
     1.3338   1.3346   1.3440   1.3456   1.3940   1.4404   1.4407   1.4422
     1.4473   1.4477   1.4720   1.8836   2.1129   2.1148   2.1176   2.1313
     2.1366   2.1500   2.1731   2.2096   2.3504

 ------ SPIN DOWN ----------


          k = 0.0000 0.0000 0.0000 ( 77079 PWs)   bands (ev):

   -21.7319 -21.4777 -21.3558 -21.3546 -21.3438 -21.3164 -21.2497 -20.8088
   -20.6236 -20.6183 -20.6159 -20.5389 -20.5197 -20.3842 -20.2736 -20.2727
   -20.2682 -20.1361 -20.1078 -19.5574 -19.3724 -19.3654 -19.3575 -19.3528
   -19.3516 -19.3461 -19.3458 -19.3398 -19.3334 -19.1395 -19.1383 -19.0097
   -18.9579 -18.9541 -18.9502 -18.7626 -18.7544 -18.5261 -18.5114 -18.5110
   -18.4903 -18.4230 -18.4151 -18.3601 -18.3431 -18.3324 -18.3301 -16.9575
   -14.7597 -12.9747 -12.7475 -12.7383 -12.7334 -12.6865 -12.6825 -12.6192
   -12.5414 -12.5273 -12.4985 -12.4482 -12.4029 -12.1094 -12.0568 -12.0451
   -12.0232 -11.9392 -11.9222 -11.4936 -11.4010 -11.3766 -11.3678 -11.3619
   -11.3520 -11.3433 -11.3411 -11.3114 -11.2524 -11.0534 -10.9801 -10.8349
   -10.6919 -10.6851 -10.6631 -10.6438 -10.4847 -10.0433 -10.0335  -9.9904
    -9.8724  -9.8440  -9.7646  -9.3667  -9.3042  -9.2860  -9.2732  -9.2562
    -9.2329  -9.1874  -9.0063  -8.9088  -8.9077  -8.8680  -8.8635  -8.8585
    -8.8423  -8.8235  -8.8196  -8.8176  -8.8142  -8.8110  -8.8043  -8.8037
    -8.7896  -8.7886  -8.7784  -8.7510  -8.7185  -8.6634  -8.6613  -8.5951
    -8.4472  -8.4258  -8.1531  -8.1499  -8.1391  -8.1000  -8.0916  -7.8633
    -7.8485  -7.7881  -7.7851  -7.7835  -7.7039  -7.6866  -7.5311  -7.4982
    -7.4853  -7.4316  -7.4222  -7.4135  -7.3968  -7.3859  -7.3762  -7.3566
    -7.3108  -7.3092  -7.3061  -7.2716  -7.2024  -7.1815  -7.1771  -7.0022
    -6.9751  -6.9724  -6.9435  -6.7395  -6.5922  -6.4526  -6.2091  -6.1822
    -6.1509  -6.1432  -6.0746  -6.0259  -6.0236  -6.0184  -6.0167  -6.0139
    -6.0113  -6.0088  -6.0012  -5.9917  -5.8044  -5.7535  -5.7127  -5.5936
    -5.4885  -5.4266  -5.4196  -5.4119  -5.2741  -5.1785  -4.8389  -4.7644
    -4.7604  -4.7354  -4.7286  -4.7163  -4.6335  -4.6067  -4.5167  -4.4851
    -4.4775  -4.4773  -4.1343  -2.7446   0.1911   0.3169   0.7100   0.7513
     0.7563   0.7569   0.7836   0.7915   0.7932   0.8243   0.8270   0.8274
     0.8349   0.8437   0.8463   0.9104   0.9213   0.9263   0.9381   0.9580
     1.0489   1.1993   1.2586   1.2773   1.2976   1.3307   1.3313   1.3332
     1.3339   1.3420   1.3430   1.3605   1.4057   1.4394   1.4398   1.4412
     1.4461   1.4473   1.4757   1.8846   2.1126   2.1152   2.1173   2.1319
     2.1439   2.1586   2.1919   2.2122   2.3538

     highest occupied, lowest unoccupied level (ev):    -3.4416   -2.7446

!    total energy              =   -1940.46507835 Ry
     Harris-Foulkes estimate   =   -1940.46507879 Ry
     estimated scf accuracy    <       0.00000075 Ry

     total all-electron energy =     -7770.289555 Ry

     The total energy is the sum of the following terms:

     one-electron contribution =  -10676.22000025 Ry
     hartree contribution      =    5424.11411678 Ry
     xc contribution           =    -431.05312938 Ry
     ewald contribution        =    4386.14892482 Ry
     DFT-D3 Dispersion         =      -0.27075006 Ry
     one-center paw contrib.   =    -643.18424025 Ry

     total magnetization       =     1.00 Bohr mag/cell
     absolute magnetization    =     1.20 Bohr mag/cell

     convergence has been achieved in   7 iterations

     negative rho (up, down):  4.886E-01 5.450E-03

     Forces acting on atoms (cartesian axes, Ry/au):

     atom    1 type  1   force =     0.00127844   -0.00123827    0.00000000
     atom    2 type  1   force =    -0.00001777   -0.00130142    0.00000000
     atom    3 type  1   force =    -0.00027924   -0.00095422    0.00000000
     atom    4 type  1   force =    -0.00178165    0.00037028    0.00000000
     atom    5 type  1   force =    -0.00162152    0.00010872    0.00000000
     atom    6 type  1   force =    -0.00101813   -0.00044081    0.00000000
     atom    7 type  1   force =     0.00053567   -0.00030518    0.00000000
     atom    8 type  1   force =     0.00118710    0.00180882    0.00000000
     atom    9 type  1   force =    -0.00132324   -0.01503561    0.00000000
     atom   10 type  1   force =     0.00391125    0.00099137    0.00000000
     atom   11 type  1   force =    -0.01209966    0.00053167    0.00000000
     atom   12 type  1   force =    -0.00207106    0.00104823    0.00000000
     atom   13 type  1   force =    -0.00106633    0.00061792    0.00000000
     atom   14 type  1   force =    -0.00012523    0.00110552    0.00000000
     atom   15 type  1   force =     0.00010443    0.00128479    0.00000000
     atom   16 type  1   force =     0.00663483   -0.00846922    0.00000000
     atom   17 type  1   force =     0.01616089    0.04289045    0.00000000
[...]
     atom:   55    charge:    2.7511    magn:    0.0000    constr:    0.0000
     atom:   56    charge:    2.7500    magn:   -0.0000    constr:    0.0000
     atom:   57    charge:    2.7507    magn:    0.0003    constr:    0.0000
     atom:   58    charge:    2.7528    magn:    0.0039    constr:    0.0000
     atom:   59    charge:    2.7473    magn:    0.0064    constr:    0.0000
     atom:   60    charge:    2.7434    magn:    0.0123    constr:    0.0000
     atom:   61    charge:    2.7562    magn:    0.0012    constr:    0.0000
     atom:   62    charge:    2.7499    magn:   -0.0001    constr:    0.0000
     atom:   63    charge:    2.7511    magn:    0.0000    constr:    0.0000
     atom:   64    charge:    2.7563    magn:    0.0000    constr:    0.0000
     atom:   65    charge:    2.7559    magn:    0.0003    constr:    0.0000
     atom:   66    charge:    2.7553    magn:    0.0159    constr:    0.0000
     atom:   67    charge:    1.6561    magn:    0.1192    constr:    0.0000
     atom:   68    charge:    2.7620    magn:   -0.0024    constr:    0.0000
     atom:   69    charge:    2.7562    magn:    0.0012    constr:    0.0000
     atom:   70    charge:    2.7539    magn:    0.0001    constr:    0.0000
     atom:   71    charge:    2.7542    magn:    0.0000    constr:    0.0000
     atom:   72    charge:    2.7500    magn:    0.0002    constr:    0.0000
     atom:   73    charge:    2.7478    magn:    0.0013    constr:    0.0000
     atom:   74    charge:    2.7327    magn:   -0.0028    constr:    0.0000
     atom:   75    charge:    1.6561    magn:    0.1192    constr:    0.0000
     atom:   76    charge:    2.7434    magn:    0.0123    constr:    0.0000
     atom:   77    charge:    2.7533    magn:    0.0000    constr:    0.0000
     atom:   78    charge:    2.7523    magn:    0.0001    constr:    0.0000
     atom:   79    charge:    2.7501    magn:   -0.0000    constr:    0.0000
     atom:   80    charge:    2.7487    magn:   -0.0001    constr:    0.0000
     atom:   81    charge:    2.7478    magn:    0.0013    constr:    0.0000
     atom:   82    charge:    2.7553    magn:    0.0159    constr:    0.0000
     atom:   83    charge:    2.7473    magn:    0.0064    constr:    0.0000
     atom:   84    charge:    2.7456    magn:    0.0029    constr:    0.0000
     atom:   85    charge:    2.7496    magn:    0.0004    constr:    0.0000
     atom:   86    charge:    2.7507    magn:   -0.0001    constr:    0.0000
     atom:   87    charge:    2.7501    magn:   -0.0000    constr:    0.0000
     atom:   88    charge:    2.7500    magn:    0.0002    constr:    0.0000
     atom:   89    charge:    2.7559    magn:    0.0003    constr:    0.0000
     atom:   90    charge:    2.7528    magn:    0.0039    constr:    0.0000
     atom:   91    charge:    2.7516    magn:   -0.0001    constr:    0.0000
     atom:   92    charge:    2.7556    magn:   -0.0000    constr:    0.0000
     atom:   93    charge:    2.7496    magn:    0.0004    constr:    0.0000
     atom:   94    charge:    2.7523    magn:    0.0001    constr:    0.0000
     atom:   95    charge:    2.7542    magn:    0.0000    constr:    0.0000
     atom:   96    charge:    2.7563    magn:    0.0000    constr:    0.0000
     atom:   97    charge:    2.7507    magn:    0.0003    constr:    0.0000
     atom:   98    charge:    2.7549    magn:    0.0005    constr:    0.0000

     total cpu time spent up to now is     4179.6 secs

     End of self-consistent calculation

 ------ SPIN UP ------------


          k = 0.0000 0.0000 0.0000 ( 77321 PWs)   bands (ev):

   -21.7572 -21.5443 -21.3707 -21.3615 -21.3432 -21.2909 -21.2389 -20.8234
   -20.6289 -20.6125 -20.6111 -20.5285 -20.5150 -20.3916 -20.2721 -20.2652
   -20.2437 -20.1096 -20.0965 -19.5563 -19.3731 -19.3704 -19.3671 -19.3555
   -19.3546 -19.3460 -19.3454 -19.3142 -19.2960 -19.1435 -19.1358 -19.0019
   -18.9497 -18.9492 -18.9204 -18.7549 -18.7478 -18.5213 -18.5117 -18.5007
   -18.4894 -18.4280 -18.4102 -18.3580 -18.3340 -18.3308 -18.3162 -17.0419
   -15.0749 -13.0959 -12.7438 -12.7381 -12.7271 -12.6932 -12.6872 -12.6206
   -12.5446 -12.5119 -12.5069 -12.4573 -12.3943 -12.1320 -12.0464 -12.0330
   -12.0099 -11.9593 -11.9384 -11.5181 -11.3999 -11.3815 -11.3664 -11.3599
   -11.3481 -11.3395 -11.3363 -11.2948 -11.2820 -11.1000 -11.0279 -10.8513
   -10.6982 -10.6864 -10.6529 -10.6440 -10.4918 -10.0461 -10.0130  -9.9789
    -9.9083  -9.8608  -9.7944  -9.3745  -9.3047  -9.3028  -9.2812  -9.2582
    -9.2520  -9.1967  -9.0265  -8.9050  -8.8908  -8.8720  -8.8717  -8.8621
    -8.8592  -8.8557  -8.8435  -8.8276  -8.8059  -8.8046  -8.7984  -8.7972
    -8.7853  -8.7810  -8.7805  -8.7425  -8.7296  -8.6918  -8.6517  -8.6410
    -8.4576  -8.4470  -8.1706  -8.1624  -8.1612  -8.1138  -8.0666  -7.8965
    -7.8404  -7.8010  -7.7867  -7.7848  -7.7116  -7.7115  -7.5289  -7.4739
    -7.4727  -7.4403  -7.4245  -7.4127  -7.4113  -7.3822  -7.3703  -7.3249
    -7.3188  -7.3140  -7.2935  -7.2570  -7.2291  -7.2021  -7.1985  -7.0209
    -7.0037  -6.9713  -6.9357  -6.7929  -6.6343  -6.5138  -6.2142  -6.1661
    -6.1468  -6.1343  -6.0884  -6.0412  -6.0372  -6.0359  -6.0294  -6.0215
    -6.0157  -6.0149  -5.9919  -5.9742  -5.8755  -5.7929  -5.7923  -5.6762
    -5.4955  -5.4266  -5.4222  -5.4050  -5.3408  -5.2375  -5.0988  -5.0980
    -4.7733  -4.7479  -4.7329  -4.7273  -4.6666  -4.6317  -4.5219  -4.4859
    -4.4845  -4.4769  -4.3452  -3.5488   0.0803   0.1874   0.7097   0.7314
     0.7348   0.7408   0.7603   0.7655   0.7974   0.8182   0.8186   0.8219
     0.8258   0.8409   0.8488   0.8835   0.9042   0.9052   0.9331   0.9438
     0.9782   1.1632   1.2481   1.2493   1.2692   1.2776   1.3131   1.3289
     1.3312   1.3342   1.3441   1.3513   1.3900   1.4407   1.4424   1.4433
     1.4506   1.4532   1.4750   1.8864   2.1101   2.1138   2.1350   2.3216
     2.3334   2.3400   2.3566   2.3788   2.5717

 ------ SPIN DOWN ----------


          k = 0.0000 0.0000 0.0000 ( 77321 PWs)   bands (ev):

   -21.7520 -21.5409 -21.3685 -21.3601 -21.3423 -21.2832 -21.2312 -20.8206
   -20.6250 -20.6084 -20.6061 -20.5239 -20.5111 -20.3905 -20.2655 -20.2592
   -20.2404 -20.0974 -20.0868 -19.5495 -19.3691 -19.3691 -19.3649 -19.3536
   -19.3517 -19.3421 -19.3368 -19.3035 -19.2919 -19.1374 -19.1314 -18.9978
   -18.9458 -18.9443 -18.9161 -18.7448 -18.7387 -18.5147 -18.5082 -18.4955
   -18.4862 -18.4240 -18.4027 -18.3560 -18.3306 -18.3271 -18.3119 -16.8923
   -14.7854 -13.0542 -12.7419 -12.7341 -12.7247 -12.6900 -12.6853 -12.6167
   -12.5426 -12.5079 -12.5031 -12.4417 -12.3858 -12.1265 -12.0443 -12.0303
   -12.0051 -11.9476 -11.9302 -11.5082 -11.3939 -11.3773 -11.3647 -11.3585
   -11.3465 -11.3358 -11.3349 -11.2857 -11.2711 -11.0668 -11.0039 -10.8471
   -10.6963 -10.6846 -10.6431 -10.6388 -10.4788 -10.0419 -10.0086  -9.9735
    -9.8980  -9.8463  -9.7786  -9.3717  -9.2967  -9.2873  -9.2769  -9.2538
    -9.2499  -9.1925  -9.0237  -8.9007  -8.8868  -8.8700  -8.8695  -8.8572
    -8.8517  -8.8413  -8.8408  -8.8260  -8.8029  -8.8012  -8.7953  -8.7932
    -8.7820  -8.7782  -8.7779  -8.7203  -8.7152  -8.6397  -8.6307  -8.6240
    -8.4458  -8.4156  -8.1693  -8.1600  -8.1598  -8.0951  -8.0585  -7.8819
    -7.8256  -7.7917  -7.7775  -7.7741  -7.6903  -7.6770  -7.5225  -7.4724
    -7.4696  -7.4382  -7.4232  -7.4104  -7.4068  -7.3810  -7.3684  -7.3225
    -7.3046  -7.3006  -7.2837  -7.2495  -7.1855  -7.1676  -7.1546  -7.0047
    -7.0018  -6.9703  -6.9180  -6.7655  -6.6132  -6.4867  -6.2023  -6.1630
    -6.1449  -6.1316  -6.0724  -6.0347  -6.0322  -6.0284  -6.0186  -6.0174
    -6.0071  -5.9995  -5.9659  -5.9606  -5.8112  -5.7728  -5.7558  -5.6490
    -5.4837  -5.4174  -5.4103  -5.3965  -5.2688  -5.1838  -5.0374  -5.0216
    -4.7593  -4.7385  -4.7204  -4.7175  -4.6298  -4.6185  -4.5167  -4.4775
    -4.4748  -4.4689  -4.1691  -2.8686   0.1677   0.1893   0.7102   0.7366
     0.7408   0.7520   0.7766   0.7826   0.7960   0.8182   0.8218   0.8228
     0.8256   0.8407   0.8514   0.8892   0.9151   0.9198   0.9376   0.9610
     1.0274   1.1782   1.2587   1.2775   1.2805   1.3161   1.3283   1.3297
     1.3335   1.3404   1.3432   1.3695   1.3989   1.4399   1.4416   1.4424
     1.4494   1.4525   1.4781   1.8873   2.1139   2.1522   2.3261   2.3418
     2.3450   2.3520   2.3608   2.3629   2.4323

     highest occupied, lowest unoccupied level (ev):    -3.5488   -2.8686

!    total energy              =   -1940.48605900 Ry
     Harris-Foulkes estimate   =   -1940.48605899 Ry
     estimated scf accuracy    <          9.1E-09 Ry

     total all-electron energy =     -7770.310536 Ry

     The total energy is the sum of the following terms:

     one-electron contribution =  -10659.90117083 Ry
     hartree contribution      =    5415.83139162 Ry
     xc contribution           =    -430.86561027 Ry
     ewald contribution        =    4377.89969976 Ry
     DFT-D3 Dispersion         =      -0.27041057 Ry
     one-center paw contrib.   =    -643.17995871 Ry

     total magnetization       =     1.00 Bohr mag/cell
     absolute magnetization    =     1.20 Bohr mag/cell

     convergence has been achieved in  13 iterations

     negative rho (up, down):  4.867E-01 5.529E-03

     Forces acting on atoms (cartesian axes, Ry/au):

     atom    1 type  1   force =     0.00003598   -0.00041493    0.00000000
     atom    2 type  1   force =     0.00003064   -0.00030920    0.00000000
     atom    3 type  1   force =    -0.00029419    0.00023010    0.00000000
     atom    4 type  1   force =    -0.00005378    0.00047924    0.00000000
     atom    5 type  1   force =     0.00042297   -0.00005769    0.00000000
     atom    6 type  1   force =     0.00029247    0.00023249    0.00000000
     atom    7 type  1   force =    -0.00004694    0.00002977    0.00000000
     atom    8 type  1   force =    -0.00015222   -0.00007758    0.00000000
     atom    9 type  1   force =     0.00001859   -0.00017255    0.00000000
     atom   10 type  1   force =    -0.00030885   -0.00003069    0.00000000
     atom   11 type  1   force =    -0.00068752    0.00010189    0.00000000
     atom   12 type  1   force =    -0.00015928    0.00037312    0.00000000
     atom   13 type  1   force =    -0.00004831    0.00002799    0.00000000
     atom   14 type  1   force =    -0.00005511   -0.00036808    0.00000000
     atom   15 type  1   force =    -0.00012318   -0.00002654    0.00000000
     atom   16 type  1   force =    -0.00000699    0.00021992    0.00000000
     atom   17 type  1   force =     0.00021312   -0.00004254    0.00000000
     atom   18 type  1   force =    -0.00017063    0.00004786    0.00000000
     atom   19 type  1   force =    -0.00053635    0.00030975    0.00000000
     atom   20 type  1   force =    -0.00040141   -0.00005039    0.00000000
     atom   21 type  1   force =     0.00026091   -0.00033630    0.00000000
     atom   22 type  1   force =     0.00029871   -0.00051602    0.00000000
     atom   23 type  1   force =     0.00001570    0.00022557    0.00000000
     atom   24 type  1   force =    -0.00009946    0.00027201    0.00000000
     atom   25 type  4   force =    -0.00007794    0.00004901    0.00000000
     atom   26 type  1   force =    -0.00011459    0.00011980    0.00000000
     atom   27 type  1   force =    -0.00042957    0.00054436    0.00000000
     atom   28 type  1   force =    -0.00043933   -0.00019393    0.00000000
     atom   29 type  1   force =     0.00027480   -0.00038039    0.00000000
     atom   30 type  1   force =     0.00020220   -0.00028266    0.00000000
     atom   31 type  1   force =    -0.00020714    0.00012453    0.00000000
     atom   32 type  1   force =    -0.00028498   -0.00004606    0.00000000
     atom   33 type  1   force =     0.00013264   -0.00017038    0.00000000
     atom   34 type  1   force =    -0.00012459    0.00028004    0.00000000
     atom   35 type  1   force =    -0.00034369    0.00013647    0.00000000
     atom   36 type  1   force =     0.00003690   -0.00021800    0.00000000
     atom   37 type  1   force =     0.00052137   -0.00030165    0.00000000
     atom   38 type  1   force =     0.00034530   -0.00003256    0.00000000
     atom   39 type  1   force =    -0.00019177   -0.00012592    0.00000000
     atom   40 type  1   force =    -0.00019716   -0.00010509    0.00000000
     atom   41 type  1   force =     0.00015539    0.00006535    0.00000000
     atom   42 type  1   force =     0.00027977    0.00012343    0.00000000
     atom   43 type  1   force =     0.00019600   -0.00011352    0.00000000
     atom   44 type  1   force =     0.00020698    0.00007586    0.00000000
     atom   45 type  1   force =     0.00046622   -0.00004754    0.00000000
     atom   46 type  1   force =     0.00059484   -0.00000271    0.00000000
     atom   47 type  1   force =    -0.00004300    0.00011620    0.00000000
     atom   48 type  1   force =    -0.00001496    0.00016626    0.00000000
     atom   49 type  1   force =     0.00037263    0.00017650    0.00000000
     atom   50 type  2   force =     0.00036936    0.00031431    0.00000000
     atom   51 type  2   force =     0.00034932   -0.00003632    0.00000000
     atom   52 type  2   force =    -0.00019539   -0.00008849    0.00000000
     atom   53 type  2   force =    -0.00019249    0.00001082    0.00000000
     atom   54 type  2   force =     0.00031759    0.00000039    0.00000000
     atom   55 type  2   force =    -0.00026324   -0.00033521    0.00000000
     atom   56 type  2   force =    -0.00035348    0.00020236    0.00000000
     atom   57 type  2   force =    -0.00014874    0.00052420    0.00000000
     atom   58 type  2   force =     0.00026023    0.00005630    0.00000000
     atom   59 type  2   force =     0.00003167   -0.00006898    0.00000000
     atom   60 type  2   force =    -0.00044550    0.00004673    0.00000000
     atom   61 type  2   force =    -0.00006310    0.00005973    0.00000000
     atom   62 type  2   force =     0.00020100   -0.00011685    0.00000000
     atom   63 type  2   force =     0.00015930    0.00039433    0.00000000
     atom   64 type  2   force =    -0.00003856    0.00047898    0.00000000
     atom   65 type  2   force =    -0.00005052   -0.00005538    0.00000000
     atom   66 type  2   force =     0.00005293    0.00003131    0.00000000
     atom   67 type  3   force =     0.00009370    0.00015634    0.00000000
     atom   68 type  2   force =    -0.00010652    0.00005794    0.00000000
     atom   69 type  2   force =    -0.00008782    0.00002277    0.00000000
     atom   70 type  2   force =     0.00015753   -0.00027502    0.00000000
     atom   71 type  2   force =     0.00022446    0.00011025    0.00000000
     atom   72 type  2   force =     0.00009108   -0.00014379    0.00000000
     atom   73 type  2   force =     0.00004177    0.00002168    0.00000000
     atom   74 type  2   force =     0.00004367   -0.00002532    0.00000000
     atom   75 type  5   force =    -0.00008664   -0.00015004    0.00000000
     atom   76 type  2   force =    -0.00026578    0.00035834    0.00000000
     atom   77 type  2   force =    -0.00011181    0.00016575    0.00000000
     atom   78 type  2   force =     0.00005301   -0.00029667    0.00000000
     atom   79 type  2   force =    -0.00018047    0.00021104    0.00000000
     atom   80 type  2   force =     0.00038848   -0.00022565    0.00000000
     atom   81 type  2   force =     0.00000113   -0.00005460    0.00000000
     atom   82 type  2   force =    -0.00000462   -0.00006476    0.00000000
     atom   83 type  2   force =     0.00007313    0.00000412    0.00000000
     atom   84 type  2   force =    -0.00002160    0.00021959    0.00000000
     atom   85 type  2   force =    -0.00000709   -0.00024941    0.00000000
     atom   86 type  2   force =     0.00009656   -0.00005589    0.00000000
     atom   87 type  2   force =    -0.00027292    0.00005107    0.00000000
     atom   88 type  2   force =     0.00017382   -0.00000808    0.00000000
     atom   89 type  2   force =     0.00003284    0.00007293    0.00000000
     atom   90 type  2   force =     0.00009071   -0.00024835    0.00000000
     atom   91 type  2   force =     0.00021372   -0.00027538    0.00000000
     atom   92 type  2   force =     0.00013790   -0.00007884    0.00000000
     atom   93 type  2   force =     0.00021555    0.00013397    0.00000000
     atom   94 type  2   force =     0.00028805    0.00010436    0.00000000
     atom   95 type  2   force =     0.00001848   -0.00024907    0.00000000
     atom   96 type  2   force =    -0.00043191   -0.00020553    0.00000000
     atom   97 type  2   force =    -0.00052436   -0.00013111    0.00000000
     atom   98 type  2   force =    -0.00008564   -0.00047546    0.00000000

     Total force =     0.003272     Total SCF correction =     0.000096


     Computing stress (Cartesian axis) and pressure


     negative rho (up, down):  4.867E-01 5.529E-03
          total   stress  (Ry/bohr**3)                   (kbar)     P=   -0.15
   0.00000024  -0.00000008   0.00000000          0.04     -0.01      0.00
  -0.00000008   0.00000016   0.00000000         -0.01      0.02      0.00
   0.00000000   0.00000000  -0.00000340          0.00      0.00     -0.50


     Writing output data file C2Cn.save/
 
     init_run     :      8.50s CPU      8.83s WALL (       2 calls)
     electrons    :   3950.02s CPU   3995.35s WALL (      10 calls)
     update_pot   :     26.98s CPU     27.13s WALL (       8 calls)
     forces       :     33.79s CPU     35.06s WALL (      10 calls)
     stress       :    115.46s CPU    116.37s WALL (      10 calls)

     Called by init_run:
     wfcinit      :      3.34s CPU      3.51s WALL (       2 calls)
     potinit      :      1.80s CPU      1.83s WALL (       2 calls)
     hinit0       :      2.54s CPU      2.57s WALL (       2 calls)

     Called by electrons:
     c_bands      :   3853.23s CPU   3892.03s WALL (      89 calls)
     sum_band     :     48.69s CPU     50.99s WALL (      89 calls)
     v_of_rho     :     16.13s CPU     16.66s WALL (      96 calls)
     newd         :      5.42s CPU      7.18s WALL (      96 calls)
     PAW_pot      :     18.35s CPU     18.56s WALL (     104 calls)
     mix_rho      :      1.24s CPU      1.40s WALL (      89 calls)

     Called by c_bands:
     init_us_2    :      3.48s CPU      3.60s WALL (     416 calls)
     rcgdiagg     :   3764.75s CPU   3801.35s WALL (     201 calls)
     wfcrot       :     88.95s CPU     90.87s WALL (     179 calls)

     Called by sum_band:
     sum_band:bec :      0.13s CPU      0.13s WALL (     194 calls)
     addusdens    :      5.72s CPU      7.41s WALL (      89 calls)

     Called by *cgdiagg:
     h_psi        :   1893.56s CPU   1912.07s WALL (  171046 calls)
     s_psi        :   1140.55s CPU   1152.03s WALL (  341913 calls)
     rdiaghg      :      2.57s CPU      2.66s WALL (     179 calls)

     Called by h_psi:
     h_psi:pot    :   1891.66s CPU   1910.15s WALL (  171046 calls)
     h_psi:calbec :    703.96s CPU    711.05s WALL (  171046 calls)
     vloc_psi     :    605.53s CPU    612.83s WALL (  171046 calls)
     add_vuspsi   :    580.50s CPU    585.14s WALL (  171046 calls)
     hs_1psi      :   2386.38s CPU   2409.08s WALL (  170867 calls)
     s_1psi       :   1174.73s CPU   1185.98s WALL (  170867 calls)

     General routines
     calbec       :   1311.64s CPU   1325.69s WALL (  342207 calls)
     fft          :     15.96s CPU     16.16s WALL (    1956 calls)
     ffts         :      0.61s CPU      0.62s WALL (     178 calls)
     fftw         :    568.39s CPU    575.09s WALL (  408246 calls)
 
     Parallel routines
     fft_scatt_xy :     55.44s CPU     56.02s WALL (  410380 calls)
     fft_scatt_yz :    167.25s CPU    169.61s WALL (  410380 calls)
 
     PWSCF        :      1h 9m CPU      1h 9m WALL

 
   This run was terminated on:  23:55:21   7Jun2021            

=------------------------------------------------------------------------------=
   JOB DONE.
=------------------------------------------------------------------------------=
