
     Program PWSCF v.6.8 starts on 12Oct2022 at 11:29:26 

     This program is part of the open-source Quantum ESPRESSO suite
     for quantum simulation of materials; please cite
         "P. Giannozzi et al., J. Phys.:Condens. Matter 21 395502 (2009);
         "P. Giannozzi et al., J. Phys.:Condens. Matter 29 465901 (2017);
         "P. Giannozzi et al., J. Chem. Phys. 152 154105 (2020);
          URL http://www.quantum-espresso.org", 
     in publications or presentations arising from this work. More details at
     http://www.quantum-espresso.org/quote

     Parallel version (MPI & OpenMP), running on      32 processor cores
     Number of MPI processes:                32
     Threads/MPI process:                     1

     MPI processes distributed on     1 nodes
     R & G space division:  proc/nbgrp/npool/nimage =      32
     160748 MiB available memory on the printing compute node when the environment starts
 
     Waiting for input...
     Reading input from standard input

     Current dimensions of program PWSCF are:
     Max number of different atomic species (ntypx) = 10
     Max number of k-points (npk) =  40000
     Max angular momentum in pseudopotentials (lmaxx) =  4
     file N.pbe-n-kjpaw_psl.1.0.0.UPF: wavefunction(s)  2S renormalized

     Subspace diagonalization in iterative solution of the eigenvalue problem:
     one sub-group per band group will be used
     scalapack distributed-memory algorithm (size of sub-group:  5*  5 procs)

 
     Parallelization info
     --------------------
     sticks:   dense  smooth     PW     G-vecs:    dense   smooth      PW
     Min          11      11      3                 1069     1069     177
     Max          12      12      4                 1092     1092     200
     Sum         367     367    121                34489    34489    5933
 
     Using Slab Decomposition
 


     bravais-lattice index     =            4
     lattice parameter (alat)  =       4.7243  a.u.
     unit-cell volume          =     547.8964 (a.u.)^3
     number of atoms/cell      =            2
     number of atomic types    =            2
     number of electrons       =         8.00
     number of Kohn-Sham states=            8
     kinetic-energy cutoff     =      60.0000  Ry
     charge density cutoff     =     240.0000  Ry
     scf convergence threshold =      1.0E-12
     mixing beta               =       0.7000
     number of iterations used =            8  plain     mixing
     energy convergence thresh.=      1.0E-04
     force convergence thresh. =      1.9E-10
     press convergence thresh. =      5.0E-01
     Exchange-correlation= SLA  PW   PBX  PBC
                           (   1   4   3   4   0   0   0)
     nstep                     =         2000


     celldm(1)=   4.724315  celldm(2)=   0.000000  celldm(3)=   6.000000
     celldm(4)=   0.000000  celldm(5)=   0.000000  celldm(6)=   0.000000

     crystal axes: (cart. coord. in units of alat)
               a(1) = (   1.000000   0.000000   0.000000 )  
               a(2) = (  -0.500000   0.866025   0.000000 )  
               a(3) = (   0.000000   0.000000   6.000000 )  

     reciprocal axes: (cart. coord. in units 2 pi/alat)
               b(1) = (  1.000000  0.577350  0.000000 )  
               b(2) = (  0.000000  1.154701  0.000000 )  
               b(3) = (  0.000000  0.000000  0.166667 )  


     PseudoPot. # 1 for B  read from file:
     ./pseudo/B.pbe-n-kjpaw_psl.1.0.0.UPF
     MD5 check sum: 8c825a5969375aca5c2c6ad5945b3059
     Pseudo is Projector augmented-wave + core cor, Zval =  3.0
     Generated using &quot;atomic&quot; code by A. Dal Corso  v.6.3
     Shape of augmentation charge: PSQ
     Using radial grid of 1059 points,  4 beta functions with: 
                l(1) =   0
                l(2) =   0
                l(3) =   1
                l(4) =   1
     Q(r) pseudized with 0 coefficients 


     PseudoPot. # 2 for N  read from file:
     ./pseudo/N.pbe-n-kjpaw_psl.1.0.0.UPF
     MD5 check sum: 14c48229446f9f2d411169a3abcbc3fa
     Pseudo is Projector augmented-wave + core cor, Zval =  5.0
     Generated using &quot;atomic&quot; code by A. Dal Corso  v.6.3
     Shape of augmentation charge: PSQ
     Using radial grid of 1085 points,  4 beta functions with: 
                l(1) =   0
                l(2) =   0
                l(3) =   1
                l(4) =   1
     Q(r) pseudized with 0 coefficients 


     atomic species   valence    mass     pseudopotential
        B              3.00    10.81100     B ( 1.00)
        N              5.00    14.00670     N ( 1.00)

     12 Sym. Ops. (no inversion) found



   Cartesian axes

     site n.     atom                  positions (alat units)
         1           B   tau(   1) = (  -0.0000005   0.5773506   3.0000000  )
         2           N   tau(   2) = (   0.5000005   0.2886748   3.0000000  )

     number of k points=    30
                       cart. coord. in units 2pi/alat
        k(    1) = (   0.0000000   0.0000000   0.0000000), wk =   0.0078125
        k(    2) = (   0.0000000   0.0721688   0.0000000), wk =   0.0468750
        k(    3) = (   0.0000000   0.1443376   0.0000000), wk =   0.0468750
        k(    4) = (   0.0000000   0.2165064   0.0000000), wk =   0.0468750
        k(    5) = (   0.0000000   0.2886751   0.0000000), wk =   0.0468750
        k(    6) = (   0.0000000   0.3608439   0.0000000), wk =   0.0468750
        k(    7) = (   0.0000000   0.4330127   0.0000000), wk =   0.0468750
        k(    8) = (   0.0000000   0.5051815   0.0000000), wk =   0.0468750
        k(    9) = (   0.0000000  -0.5773503   0.0000000), wk =   0.0234375
        k(   10) = (   0.0625000   0.1082532   0.0000000), wk =   0.0468750
        k(   11) = (   0.0625000   0.1804220   0.0000000), wk =   0.0937500
        k(   12) = (   0.0625000   0.2525907   0.0000000), wk =   0.0937500
        k(   13) = (   0.0625000   0.3247595   0.0000000), wk =   0.0937500
        k(   14) = (   0.0625000   0.3969283   0.0000000), wk =   0.0937500
        k(   15) = (   0.0625000   0.4690971   0.0000000), wk =   0.0937500
        k(   16) = (   0.0625000   0.5412659   0.0000000), wk =   0.0937500
        k(   17) = (   0.1250000   0.2165064   0.0000000), wk =   0.0468750
        k(   18) = (   0.1250000   0.2886751   0.0000000), wk =   0.0937500
        k(   19) = (   0.1250000   0.3608439   0.0000000), wk =   0.0937500
        k(   20) = (   0.1250000   0.4330127   0.0000000), wk =   0.0937500
        k(   21) = (   0.1250000   0.5051815   0.0000000), wk =   0.0937500
        k(   22) = (   0.1250000   0.5773503   0.0000000), wk =   0.0468750
        k(   23) = (   0.1875000   0.3247595   0.0000000), wk =   0.0468750
        k(   24) = (   0.1875000   0.3969283   0.0000000), wk =   0.0937500
        k(   25) = (   0.1875000   0.4690971   0.0000000), wk =   0.0937500
        k(   26) = (   0.1875000   0.5412659   0.0000000), wk =   0.0937500
        k(   27) = (   0.2500000   0.4330127   0.0000000), wk =   0.0468750
        k(   28) = (   0.2500000   0.5051815   0.0000000), wk =   0.0937500
        k(   29) = (   0.2500000   0.5773503   0.0000000), wk =   0.0468750
        k(   30) = (   0.3125000   0.5412659   0.0000000), wk =   0.0468750

     Dense  grid:    34489 G-vectors     FFT dimensions: (  24,  24, 144)

     Estimated max dynamical RAM per process >       3.45 MB

     Estimated total dynamical RAM >     110.47 MB
 ----2D----2D----2D----2D----2D----2D----2D----2D----2D----2D----2D----2D
  The code is running with the 2D cutoff
  Please refer to:
  Sohier, T., Calandra, M., & Mauri, F. (2017), 
  Density functional perturbation theory for gated two-dimensional heterostructu
 res:
  Theoretical developments and application to flexural phonons in graphene.
  Physical Review B, 96(7), 75448. https://doi.org/10.1103/PhysRevB.96.075448
 ----2D----2D----2D----2D----2D----2D----2D----2D----2D----2D----2D----2D

     Check: negative core charge=   -0.000006

     Initial potential from superposition of free atoms

     starting charge    7.99971, renormalised to    8.00000

     negative rho (up, down):  3.175E-04 0.000E+00
     Starting wfcs are    8 randomized atomic wfcs
     Checking if some PAW data can be deallocated... 

     total cpu time spent up to now is        0.9 secs

     Self-consistent Calculation

     iteration #  1     ecut=    60.00 Ry     beta= 0.70
     CG style diagonalization
     ethr =  1.00E-02,  avg # of iterations =  4.2

     negative rho (up, down):  4.481E-04 0.000E+00

     total cpu time spent up to now is        1.4 secs

     total energy              =     -39.71586698 Ry
     estimated scf accuracy    <       0.41978964 Ry

     iteration #  2     ecut=    60.00 Ry     beta= 0.70
     CG style diagonalization
     ethr =  5.25E-03,  avg # of iterations =  3.9

     negative rho (up, down):  4.391E-04 0.000E+00

     total cpu time spent up to now is        1.9 secs

     total energy              =     -39.81727339 Ry
     estimated scf accuracy    <       0.23022123 Ry

     iteration #  3     ecut=    60.00 Ry     beta= 0.70
     CG style diagonalization
     ethr =  2.88E-03,  avg # of iterations =  3.3

     negative rho (up, down):  4.990E-04 0.000E+00

     total cpu time spent up to now is        2.2 secs

     total energy              =     -39.86170679 Ry
     estimated scf accuracy    <       0.00171635 Ry

     iteration #  4     ecut=    60.00 Ry     beta= 0.70
     CG style diagonalization
     ethr =  2.15E-05,  avg # of iterations =  6.0

     negative rho (up, down):  6.029E-04 0.000E+00

     total cpu time spent up to now is        2.9 secs

     total energy              =     -39.86347418 Ry
     estimated scf accuracy    <       0.00332478 Ry

     iteration #  5     ecut=    60.00 Ry     beta= 0.70
     CG style diagonalization
     ethr =  2.15E-05,  avg # of iterations =  3.6

     negative rho (up, down):  6.291E-04 0.000E+00

     total cpu time spent up to now is        3.4 secs

     total energy              =     -39.86445222 Ry
     estimated scf accuracy    <       0.00038939 Ry

     iteration #  6     ecut=    60.00 Ry     beta= 0.70
     CG style diagonalization
     ethr =  4.87E-06,  avg # of iterations =  3.5

     negative rho (up, down):  6.210E-04 0.000E+00

     total cpu time spent up to now is        3.8 secs

     total energy              =     -39.86443438 Ry
     estimated scf accuracy    <       0.00009862 Ry

     iteration #  7     ecut=    60.00 Ry     beta= 0.70
     CG style diagonalization
     ethr =  1.23E-06,  avg # of iterations =  3.6

     negative rho (up, down):  6.210E-04 0.000E+00

     total cpu time spent up to now is        4.2 secs

     total energy              =     -39.86446496 Ry
     estimated scf accuracy    <       0.00000026 Ry

     iteration #  8     ecut=    60.00 Ry     beta= 0.70
     CG style diagonalization
     ethr =  3.25E-09,  avg # of iterations =  3.9

     negative rho (up, down):  6.207E-04 0.000E+00

     total cpu time spent up to now is        4.6 secs

     total energy              =     -39.86446552 Ry
     estimated scf accuracy    <       0.00000005 Ry

     iteration #  9     ecut=    60.00 Ry     beta= 0.70
     CG style diagonalization
     ethr =  6.09E-10,  avg # of iterations =  3.1

     negative rho (up, down):  6.209E-04 0.000E+00

     total cpu time spent up to now is        5.0 secs

     total energy              =     -39.86446552 Ry
     estimated scf accuracy    <       0.00000001 Ry

     iteration # 10     ecut=    60.00 Ry     beta= 0.70
     CG style diagonalization
     ethr =  1.55E-10,  avg # of iterations =  3.4

     negative rho (up, down):  6.209E-04 0.000E+00

     total cpu time spent up to now is        5.4 secs

     total energy              =     -39.86446552 Ry
     estimated scf accuracy    <          9.0E-11 Ry

     iteration # 11     ecut=    60.00 Ry     beta= 0.70
     CG style diagonalization
     ethr =  1.12E-12,  avg # of iterations =  3.8

     negative rho (up, down):  6.209E-04 0.000E+00

     total cpu time spent up to now is        5.8 secs

     total energy              =     -39.86446552 Ry
     estimated scf accuracy    <          4.2E-10 Ry

     iteration # 12     ecut=    60.00 Ry     beta= 0.70
     CG style diagonalization
     ethr =  1.12E-12,  avg # of iterations =  3.5

     negative rho (up, down):  6.209E-04 0.000E+00

     total cpu time spent up to now is        6.3 secs

     total energy              =     -39.86446552 Ry
     estimated scf accuracy    <          3.7E-11 Ry

     iteration # 13     ecut=    60.00 Ry     beta= 0.70
     CG style diagonalization
     ethr =  4.58E-13,  avg # of iterations =  3.0

     negative rho (up, down):  6.209E-04 0.000E+00

     total cpu time spent up to now is        6.6 secs

     total energy              =     -39.86446552 Ry
     estimated scf accuracy    <          4.5E-12 Ry

     iteration # 14     ecut=    60.00 Ry     beta= 0.70
     CG style diagonalization
     ethr =  1.00E-13,  avg # of iterations =  3.5

     negative rho (up, down):  6.209E-04 0.000E+00

     total cpu time spent up to now is        7.0 secs

     End of self-consistent calculation

          k = 0.0000 0.0000 0.0000 (  4287 PWs)   bands (ev):

   -23.5042 -11.0777  -7.1248  -7.1247  -1.1435  -0.2226   1.2124   2.2166

          k = 0.0000 0.0722 0.0000 (  4258 PWs)   bands (ev):

   -23.4286 -10.9759  -7.4476  -7.2751  -1.0131  -0.1032   1.3407   2.3258

          k = 0.0000 0.1443 0.0000 (  4276 PWs)   bands (ev):

   -23.2040 -10.6731  -8.3187  -7.6737  -0.6324   0.2520   1.7182   2.6410

          k = 0.0000 0.2165 0.0000 (  4292 PWs)   bands (ev):

   -22.8380 -10.1777  -9.5337  -8.2049  -0.0171   0.8285   2.3302   3.0863

          k = 0.0000 0.2887 0.0000 (  4280 PWs)   bands (ev):

   -22.3461 -10.8985  -9.5070  -8.7566   0.8216   1.5428   3.1548   3.2335

          k = 0.0000 0.3608 0.0000 (  4296 PWs)   bands (ev):

   -21.7594 -12.2589  -9.2480  -8.6962   1.6037   1.8632   3.2613   4.0929

          k = 0.0000 0.4330 0.0000 (  4318 PWs)   bands (ev):

   -21.1408 -13.4741  -9.6278  -7.8196   0.5165   3.0214   4.3795   4.7036

          k = 0.0000 0.5052 0.0000 (  4308 PWs)   bands (ev):

   -20.6188 -14.3700  -9.8660  -7.0467  -0.5290   3.8665   5.4116   5.8809

          k = 0.0000-0.5774 0.0000 (  4320 PWs)   bands (ev):

   -20.4013 -14.7146  -9.9471  -6.7086  -0.9714   4.0534   6.6881   7.1285

          k = 0.0625 0.1083 0.0000 (  4287 PWs)   bands (ev):

   -23.2785 -10.7736  -8.0200  -7.5742  -0.7575   0.1341   1.5940   2.5385

          k = 0.0625 0.1804 0.0000 (  4284 PWs)   bands (ev):

   -22.9830 -10.3743  -9.0137  -8.0886  -0.2585   0.6012   2.0915   2.9271

          k = 0.0625 0.2526 0.0000 (  4270 PWs)   bands (ev):

   -22.5532 -10.2626  -9.7903  -8.6717   0.4719   1.2623   2.8189   3.2773

          k = 0.0625 0.3248 0.0000 (  4299 PWs)   bands (ev):

   -22.0112 -11.6001  -9.2204  -9.0465   1.4214   1.8029   3.1173   3.7444

          k = 0.0625 0.3969 0.0000 (  4317 PWs)   bands (ev):

   -21.4013 -12.8784  -9.6717  -8.1934   1.0833   2.5581   3.8253   4.6741

          k = 0.0625 0.4691 0.0000 (  4326 PWs)   bands (ev):

   -20.8139 -13.9417  -9.9890  -7.3429  -0.0538   3.7209   5.1788   5.1868

          k = 0.0625 0.5413 0.0000 (  4319 PWs)   bands (ev):

   -20.4201 -14.5818 -10.1521  -6.7425  -0.8438   4.3150   6.1853   6.7678

          k = 0.1250 0.2165 0.0000 (  4280 PWs)   bands (ev):

   -22.6232  -9.9540  -9.8858  -8.7428   0.3578   1.1593   2.7096   3.2605

          k = 0.1250 0.2887 0.0000 (  4301 PWs)   bands (ev):

   -22.1407 -11.0768  -9.4238  -9.2257   1.2061   1.7735   3.1918   3.5592

          k = 0.1250 0.3608 0.0000 (  4311 PWs)   bands (ev):

   -21.5674 -12.2719  -9.9996  -8.4297   1.5006   2.2725   3.5284   4.6052

          k = 0.1250 0.4330 0.0000 (  4311 PWs)   bands (ev):

   -20.9667 -13.3818 -10.4252  -7.5725   0.4446   3.5178   4.7046   5.6076

          k = 0.1250 0.5052 0.0000 (  4299 PWs)   bands (ev):

   -20.4643 -14.2137 -10.6851  -6.8208  -0.5232   4.7325   6.1207   6.1684

          k = 0.1250 0.5774 0.0000 (  4308 PWs)   bands (ev):

   -20.2567 -14.5349 -10.7724  -6.4937  -0.9333   5.1892   7.0108   7.5918

          k = 0.1875 0.3248 0.0000 (  4312 PWs)   bands (ev):

   -21.6244 -11.9573 -10.2342  -8.5104   1.6494   2.1741   3.4461   4.5357

          k = 0.1875 0.3969 0.0000 (  4303 PWs)   bands (ev):

   -21.0500 -12.8819 -10.8966  -7.6966   0.7765   3.3579   4.4674   5.7126

          k = 0.1875 0.4691 0.0000 (  4295 PWs)   bands (ev):

   -20.5068 -13.7196 -11.3328  -6.8949  -0.1790   4.7122   5.7799   6.8361

          k = 0.1875 0.5413 0.0000 (  4298 PWs)   bands (ev):

   -20.1507 -14.2435 -11.5455  -6.3373  -0.8366   5.9801   7.0181   7.2546

          k = 0.2500 0.4330 0.0000 (  4304 PWs)   bands (ev):

   -20.5239 -13.4236 -11.6896  -6.9245  -0.0273   4.6495   5.6427   7.0095

          k = 0.2500 0.5052 0.0000 (  4294 PWs)   bands (ev):

   -20.1019 -13.8534 -12.2037  -6.2687  -0.7061   6.0726   6.6502   8.0560

          k = 0.2500 0.5774 0.0000 (  4296 PWs)   bands (ev):

   -19.9341 -14.0296 -12.3751  -5.9921  -0.9908   6.8772   7.0752   8.0305

          k = 0.3125 0.5413 0.0000 (  4298 PWs)   bands (ev):

   -19.8571 -13.7983 -12.8249  -5.8669  -1.0310   6.6685   7.3309   8.6003

     highest occupied, lowest unoccupied level (ev):    -5.8669   -1.1435

!    total energy              =     -39.86446552 Ry

     total all-electron energy =      -159.402611 Ry
     estimated scf accuracy    <          5.9E-14 Ry

     The total energy is the sum of the following terms:
     one-electron contribution =    -252.86433743 Ry
     hartree contribution      =     127.69719886 Ry
     xc contribution           =      -8.82877758 Ry
     ewald contribution        =     107.31206485 Ry
     one-center paw contrib.   =     -13.18061423 Ry

     convergence has been achieved in  14 iterations

     negative rho (up, down):  6.209E-04 0.000E+00

     Forces acting on atoms (cartesian axes, Ry/au):

     atom    1 type  1   force =     0.00000000    0.00000000    0.00000000
     atom    2 type  2   force =     0.00000000    0.00000000    0.00000000

     Total force =     0.000000     Total SCF correction =     0.000000


     Computing stress (Cartesian axis) and pressure


     negative rho (up, down):  6.209E-04 0.000E+00
          total   stress  (Ry/bohr**3)                   (kbar)     P=        9.58
   0.00009976  -0.00000000   0.00000000           14.68       -0.00        0.00
  -0.00000000   0.00009976   0.00000000           -0.00       14.68        0.00
   0.00000000   0.00000000  -0.00000412            0.00        0.00       -0.61


     BFGS Geometry Optimization
     Energy error            =      0.0E+00 Ry
     Gradient error          =      0.0E+00 Ry/Bohr
     Cell gradient error     =      1.5E+01 kbar

     number of scf cycles    =   1
     number of bfgs steps    =   0

     enthalpy           new  =     -39.8644655214 Ry

     new trust radius        =       0.0116754063 bohr
     new conv_thr            =            1.0E-12 Ry

     new unit-cell volume =    550.63265 a.u.^3 (    81.59534 Ang^3 )
     density =      0.50506 g/cm^3

CELL_PARAMETERS (alat=  4.72431497)
   1.002493979  -0.000000000   0.000000000
  -0.501246990   0.868185253   0.000000000
   0.000000000   0.000000000   6.000000000

ATOMIC_POSITIONS (crystal)
B             0.3333330000        0.6666670000        0.5000000000
N             0.6666670000        0.3333330000        0.5000000000



     Writing output data file ./TMP_DIR/hBN.save/
     NEW-OLD atomic charge density approx. for the potential

     Check: negative core charge=   -0.000006

     negative rho (up, down):  6.268E-04 0.000E+00
     extrapolated charge    8.03975, renormalised to    8.00000

     total cpu time spent up to now is        7.5 secs

     Self-consistent Calculation

     iteration #  1     ecut=    60.00 Ry     beta= 0.70
     CG style diagonalization
     c_bands:  1 eigenvalues not converged
     ethr =  1.00E-06,  avg # of iterations =  6.2

     negative rho (up, down):  5.947E-04 0.000E+00

     total cpu time spent up to now is        8.2 secs

     total energy              =     -39.86295450 Ry
     estimated scf accuracy    <       0.00114363 Ry

     iteration #  2     ecut=    60.00 Ry     beta= 0.70
     CG style diagonalization
     ethr =  1.43E-05,  avg # of iterations =  6.4

     negative rho (up, down):  6.086E-04 0.000E+00

     total cpu time spent up to now is        8.9 secs

     total energy              =     -39.86457060 Ry
     estimated scf accuracy    <       0.00324586 Ry

     iteration #  3     ecut=    60.00 Ry     beta= 0.70
     CG style diagonalization
     ethr =  1.43E-05,  avg # of iterations =  3.4

     negative rho (up, down):  6.190E-04 0.000E+00

     total cpu time spent up to now is        9.3 secs

     total energy              =     -39.86467842 Ry
     estimated scf accuracy    <       0.00049289 Ry

     iteration #  4     ecut=    60.00 Ry     beta= 0.70
     CG style diagonalization
     ethr =  6.16E-06,  avg # of iterations =  3.3

     negative rho (up, down):  6.273E-04 0.000E+00

     total cpu time spent up to now is        9.7 secs

     total energy              =     -39.86466882 Ry
     estimated scf accuracy    <       0.00013875 Ry

     iteration #  5     ecut=    60.00 Ry     beta= 0.70
     CG style diagonalization
     ethr =  1.73E-06,  avg # of iterations =  3.4

     negative rho (up, down):  6.355E-04 0.000E+00

     total cpu time spent up to now is       10.1 secs

     total energy              =     -39.86467040 Ry
     estimated scf accuracy    <       0.00002764 Ry

     iteration #  6     ecut=    60.00 Ry     beta= 0.70
     CG style diagonalization
     ethr =  3.46E-07,  avg # of iterations =  3.8

     negative rho (up, down):  6.362E-04 0.000E+00

     total cpu time spent up to now is       10.6 secs

     total energy              =     -39.86468154 Ry
     estimated scf accuracy    <       0.00000115 Ry

     iteration #  7     ecut=    60.00 Ry     beta= 0.70
     CG style diagonalization
     ethr =  1.44E-08,  avg # of iterations =  3.1

     negative rho (up, down):  6.354E-04 0.000E+00

     total cpu time spent up to now is       10.9 secs

     total energy              =     -39.86468130 Ry
     estimated scf accuracy    <       0.00000115 Ry

     iteration #  8     ecut=    60.00 Ry     beta= 0.70
     CG style diagonalization
     ethr =  1.44E-08,  avg # of iterations =  3.0

     negative rho (up, down):  6.356E-04 0.000E+00

     total cpu time spent up to now is       11.3 secs

     total energy              =     -39.86468124 Ry
     estimated scf accuracy    <       0.00000030 Ry

     iteration #  9     ecut=    60.00 Ry     beta= 0.70
     CG style diagonalization
     ethr =  3.73E-09,  avg # of iterations =  3.4

     negative rho (up, down):  6.358E-04 0.000E+00

     total cpu time spent up to now is       11.7 secs

     total energy              =     -39.86468132 Ry
     estimated scf accuracy    <       0.00000001 Ry

     iteration # 10     ecut=    60.00 Ry     beta= 0.70
     CG style diagonalization
     ethr =  1.55E-10,  avg # of iterations =  3.2

     negative rho (up, down):  6.359E-04 0.000E+00

     total cpu time spent up to now is       12.1 secs

     total energy              =     -39.86468132 Ry
     estimated scf accuracy    <       0.00000001 Ry

     iteration # 11     ecut=    60.00 Ry     beta= 0.70
     CG style diagonalization
     ethr =  1.55E-10,  avg # of iterations =  3.5

     negative rho (up, down):  6.359E-04 0.000E+00

     total cpu time spent up to now is       12.5 secs

     total energy              =     -39.86468132 Ry
     estimated scf accuracy    <          2.1E-09 Ry

     iteration # 12     ecut=    60.00 Ry     beta= 0.70
     CG style diagonalization
     ethr =  2.62E-11,  avg # of iterations =  3.0

     negative rho (up, down):  6.359E-04 0.000E+00

     total cpu time spent up to now is       12.9 secs

     total energy              =     -39.86468132 Ry
     estimated scf accuracy    <          1.1E-09 Ry

     iteration # 13     ecut=    60.00 Ry     beta= 0.70
     CG style diagonalization
     ethr =  1.33E-11,  avg # of iterations =  3.5

     negative rho (up, down):  6.359E-04 0.000E+00

     total cpu time spent up to now is       13.3 secs

     total energy              =     -39.86468132 Ry
     estimated scf accuracy    <          7.2E-10 Ry

     iteration # 14     ecut=    60.00 Ry     beta= 0.70
     CG style diagonalization
     ethr =  9.06E-12,  avg # of iterations =  3.5

     negative rho (up, down):  6.359E-04 0.000E+00

     total cpu time spent up to now is       13.7 secs

     total energy              =     -39.86468132 Ry
     estimated scf accuracy    <          1.3E-10 Ry

     iteration # 15     ecut=    60.00 Ry     beta= 0.70
     CG style diagonalization
     ethr =  1.62E-12,  avg # of iterations =  3.0

     negative rho (up, down):  6.359E-04 0.000E+00

     total cpu time spent up to now is       14.1 secs

     total energy              =     -39.86468132 Ry
     estimated scf accuracy    <          7.1E-11 Ry

     iteration # 16     ecut=    60.00 Ry     beta= 0.70
     CG style diagonalization
     ethr =  8.83E-13,  avg # of iterations =  3.5

     negative rho (up, down):  6.359E-04 0.000E+00

     total cpu time spent up to now is       14.5 secs

     total energy              =     -39.86468132 Ry
     estimated scf accuracy    <          2.5E-12 Ry

     iteration # 17     ecut=    60.00 Ry     beta= 0.70
     CG style diagonalization
     ethr =  1.00E-13,  avg # of iterations =  3.3

     negative rho (up, down):  6.359E-04 0.000E+00

     total cpu time spent up to now is       14.9 secs

     End of self-consistent calculation

          k = 0.0000 0.0000 0.0000 (  4287 PWs)   bands (ev):

   -23.4700 -11.0493  -7.1439  -7.1438  -1.1475  -0.2260   1.2037   2.2102

          k = 0.0000 0.0720 0.0000 (  4258 PWs)   bands (ev):

   -23.3948 -10.9482  -7.4657  -7.2930  -1.0175  -0.1073   1.3316   2.3184

          k = 0.0000 0.1440 0.0000 (  4276 PWs)   bands (ev):

   -23.1716 -10.6473  -8.3339  -7.6885  -0.6383   0.2457   1.7074   2.6302

          k = 0.0000 0.2160 0.0000 (  4292 PWs)   bands (ev):

   -22.8077 -10.1550  -9.5440  -8.2158  -0.0258   0.8184   2.3161   3.0665

          k = 0.0000 0.2880 0.0000 (  4280 PWs)   bands (ev):

   -22.3188 -10.9026  -9.4888  -8.7636   0.8081   1.5244   3.1341   3.1930

          k = 0.0000 0.3599 0.0000 (  4296 PWs)   bands (ev):

   -21.7359 -12.2559  -9.2516  -8.6835   1.5618   1.8422   3.2351   4.0537

          k = 0.0000 0.4319 0.0000 (  4318 PWs)   bands (ev):

   -21.1221 -13.4639  -9.6289  -7.8133   0.4781   2.9847   4.3528   4.6361

          k = 0.0000 0.5039 0.0000 (  4308 PWs)   bands (ev):

   -20.6048 -14.3535  -9.8655  -7.0467  -0.5587   3.7943   5.3637   5.8465

          k =-0.0000-0.5759 0.0000 (  4320 PWs)   bands (ev):

   -20.3896 -14.6952  -9.9460  -6.7117  -0.9969   3.9683   6.6456   7.0843

          k = 0.0623 0.1080 0.0000 (  4287 PWs)   bands (ev):

   -23.2456 -10.7472  -8.0363  -7.5898  -0.7628   0.1286   1.5839   2.5289

          k = 0.0623 0.1800 0.0000 (  4284 PWs)   bands (ev):

   -22.9518 -10.3503  -9.0264  -8.1005  -0.2660   0.5928   2.0790   2.9117

          k = 0.0623 0.2520 0.0000 (  4270 PWs)   bands (ev):

   -22.5246 -10.2697  -9.7701  -8.6797   0.4607   1.2483   2.8020   3.2451

          k = 0.0623 0.3240 0.0000 (  4299 PWs)   bands (ev):

   -21.9861 -11.6006  -9.2248  -9.0313   1.4045   1.7706   3.0816   3.7188

          k = 0.0623 0.3959 0.0000 (  4317 PWs)   bands (ev):

   -21.3805 -12.8716  -9.6733  -8.1843   1.0407   2.5319   3.8005   4.6206

          k = 0.0623 0.4679 0.0000 (  4326 PWs)   bands (ev):

   -20.7980 -13.9280  -9.9886  -7.3404  -0.0879   3.6719   5.1213   5.1481

          k = 0.0623 0.5399 0.0000 (  4319 PWs)   bands (ev):

   -20.4082 -14.5630 -10.1507  -6.7451  -0.8709   4.2334   6.1410   6.7282

          k = 0.1247 0.2160 0.0000 (  4280 PWs)   bands (ev):

   -22.5941  -9.9629  -9.8650  -8.7505   0.3474   1.1464   2.6941   3.2320

          k = 0.1247 0.2880 0.0000 (  4301 PWs)   bands (ev):

   -22.1147 -11.0801  -9.4276  -9.2093   1.1914   1.7485   3.1502   3.5387

          k = 0.1247 0.3599 0.0000 (  4311 PWs)   bands (ev):

   -21.5454 -12.2684 -10.0005  -8.4189   1.4556   2.2514   3.5032   4.5753

          k = 0.1247 0.4319 0.0000 (  4311 PWs)   bands (ev):

   -20.9494 -13.3711 -10.4240  -7.5681   0.4052   3.4864   4.6761   5.5464

          k = 0.1247 0.5039 0.0000 (  4299 PWs)   bands (ev):

   -20.4517 -14.1966 -10.6825  -6.8225  -0.5544   4.6751   6.0541   6.1320

          k = 0.1247 0.5759 0.0000 (  4308 PWs)   bands (ev):

   -20.2464 -14.5149 -10.7694  -6.4984  -0.9606   5.1056   6.9657   7.3754

          k = 0.1870 0.3240 0.0000 (  4312 PWs)   bands (ev):

   -21.6019 -11.9556 -10.2342  -8.4989   1.6041   2.1544   3.4200   4.5101

          k = 0.1870 0.3959 0.0000 (  4303 PWs)   bands (ev):

   -21.0319 -12.8735 -10.8941  -7.6911   0.7333   3.3314   4.4399   5.6780

          k = 0.1870 0.4679 0.0000 (  4295 PWs)   bands (ev):

   -20.4937 -13.7043 -11.3289  -6.8957  -0.2147   4.6750   5.7456   6.7697

          k = 0.1870 0.5399 0.0000 (  4298 PWs)   bands (ev):

   -20.1415 -14.2233 -11.5409  -6.3431  -0.8664   5.9161   6.9763   7.1888

          k = 0.2494 0.4319 0.0000 (  4304 PWs)   bands (ev):

   -20.5106 -13.4091 -11.6849  -6.9250  -0.0652   4.6155   5.6092   6.9660

          k = 0.2494 0.5039 0.0000 (  4294 PWs)   bands (ev):

   -20.0931 -13.8327 -12.1987  -6.2748  -0.7385   6.0265   6.6120   7.9803

          k = 0.2494 0.5759 0.0000 (  4296 PWs)   bands (ev):

   -19.9273 -14.0060 -12.3701  -6.0008  -1.0206   6.8396   7.0050   7.9789

          k = 0.3117 0.5399 0.0000 (  4298 PWs)   bands (ev):

   -19.8512 -13.7700 -12.8233  -5.8766  -1.0612   6.6338   7.2663   8.5369

     highest occupied, lowest unoccupied level (ev):    -5.8766   -1.1475

!    total energy              =     -39.86468132 Ry

     total all-electron energy =      -159.402827 Ry
     estimated scf accuracy    <          6.4E-13 Ry

     The total energy is the sum of the following terms:
     one-electron contribution =    -251.61157053 Ry
     hartree contribution      =     127.06636304 Ry
     xc contribution           =      -8.81824344 Ry
     ewald contribution        =     106.67924004 Ry
     one-center paw contrib.   =     -13.18047042 Ry

     convergence has been achieved in  17 iterations

     negative rho (up, down):  6.359E-04 0.000E+00

     Forces acting on atoms (cartesian axes, Ry/au):

     atom    1 type  1   force =     0.00000000    0.00000000    0.00000000
     atom    2 type  2   force =    -0.00000000   -0.00000000    0.00000000

     Total force =     0.000000     Total SCF correction =     0.000000


     Computing stress (Cartesian axis) and pressure


     negative rho (up, down):  6.359E-04 0.000E+00
          total   stress  (Ry/bohr**3)                   (kbar)     P=        5.49
   0.00005805   0.00000000   0.00000000            8.54        0.00        0.00
   0.00000000   0.00005805   0.00000000            0.00        8.54        0.00
   0.00000000   0.00000000  -0.00000405            0.00        0.00       -0.60

     Energy error            =      2.2E-04 Ry
     Gradient error          =      5.6E-22 Ry/Bohr
     Cell gradient error     =      8.5E+00 kbar

     number of scf cycles    =   2
     number of bfgs steps    =   1

     enthalpy           old  =     -39.8644655214 Ry
     enthalpy           new  =     -39.8646813194 Ry

     CASE: enthalpy          _new < enthalpy          _old

     new trust radius        =       0.0128429469 bohr
     new conv_thr            =            1.0E-14 Ry

     new unit-cell volume =    553.65045 a.u.^3 (    82.04253 Ang^3 )
     density =      0.50231 g/cm^3

CELL_PARAMETERS (alat=  4.72431497)
   1.005237356  -0.000000000   0.000000000
  -0.502618678   0.870561087   0.000000000
   0.000000000   0.000000000   6.000000000

ATOMIC_POSITIONS (crystal)
B             0.3333330000        0.6666670000        0.5000000000
N             0.6666670000        0.3333330000        0.5000000000



     Writing output data file ./TMP_DIR/hBN.save/
     NEW-OLD atomic charge density approx. for the potential

     Check: negative core charge=   -0.000006

     negative rho (up, down):  6.423E-04 0.000E+00
     extrapolated charge    8.04360, renormalised to    8.00000

     total cpu time spent up to now is       15.3 secs

     Self-consistent Calculation

     iteration #  1     ecut=    60.00 Ry     beta= 0.70
     CG style diagonalization
     ethr =  1.00E-06,  avg # of iterations =  6.4

     negative rho (up, down):  6.062E-04 0.000E+00

     total cpu time spent up to now is       16.0 secs

     total energy              =     -39.86269530 Ry
     estimated scf accuracy    <       0.00138964 Ry

     iteration #  2     ecut=    60.00 Ry     beta= 0.70
     CG style diagonalization
     ethr =  1.74E-05,  avg # of iterations =  6.4

     negative rho (up, down):  6.217E-04 0.000E+00

     total cpu time spent up to now is       16.7 secs

     total energy              =     -39.86465195 Ry
     estimated scf accuracy    <       0.00397265 Ry

     iteration #  3     ecut=    60.00 Ry     beta= 0.70
     CG style diagonalization
     ethr =  1.74E-05,  avg # of iterations =  3.4

     negative rho (up, down):  6.335E-04 0.000E+00

     total cpu time spent up to now is       17.1 secs

     total energy              =     -39.86478457 Ry
     estimated scf accuracy    <       0.00060220 Ry

     iteration #  4     ecut=    60.00 Ry     beta= 0.70
     CG style diagonalization
     ethr =  7.53E-06,  avg # of iterations =  3.3

     negative rho (up, down):  6.430E-04 0.000E+00

     total cpu time spent up to now is       17.5 secs

     total energy              =     -39.86477385 Ry
     estimated scf accuracy    <       0.00016918 Ry

     iteration #  5     ecut=    60.00 Ry     beta= 0.70
     CG style diagonalization
     ethr =  2.11E-06,  avg # of iterations =  3.5

     negative rho (up, down):  6.528E-04 0.000E+00

     total cpu time spent up to now is       17.9 secs

     total energy              =     -39.86477473 Ry
     estimated scf accuracy    <       0.00003488 Ry

     iteration #  6     ecut=    60.00 Ry     beta= 0.70
     CG style diagonalization
     ethr =  4.36E-07,  avg # of iterations =  3.8

     negative rho (up, down):  6.534E-04 0.000E+00

     total cpu time spent up to now is       18.4 secs

     total energy              =     -39.86478915 Ry
     estimated scf accuracy    <       0.00000174 Ry

     iteration #  7     ecut=    60.00 Ry     beta= 0.70
     CG style diagonalization
     ethr =  2.17E-08,  avg # of iterations =  3.1

     negative rho (up, down):  6.526E-04 0.000E+00

     total cpu time spent up to now is       18.7 secs

     total energy              =     -39.86478882 Ry
     estimated scf accuracy    <       0.00000160 Ry

     iteration #  8     ecut=    60.00 Ry     beta= 0.70
     CG style diagonalization
     ethr =  2.00E-08,  avg # of iterations =  3.0

     negative rho (up, down):  6.528E-04 0.000E+00

     total cpu time spent up to now is       19.1 secs

     total energy              =     -39.86478871 Ry
     estimated scf accuracy    <       0.00000044 Ry

     iteration #  9     ecut=    60.00 Ry     beta= 0.70
     CG style diagonalization
     ethr =  5.54E-09,  avg # of iterations =  3.5

     negative rho (up, down):  6.529E-04 0.000E+00

     total cpu time spent up to now is       19.5 secs

     total energy              =     -39.86478885 Ry
     estimated scf accuracy    <       0.00000003 Ry

     iteration # 10     ecut=    60.00 Ry     beta= 0.70
     CG style diagonalization
     ethr =  4.20E-10,  avg # of iterations =  3.0

     negative rho (up, down):  6.532E-04 0.000E+00

     total cpu time spent up to now is       19.9 secs

     total energy              =     -39.86478883 Ry
     estimated scf accuracy    <       0.00000004 Ry

     iteration # 11     ecut=    60.00 Ry     beta= 0.70
     CG style diagonalization
     ethr =  4.20E-10,  avg # of iterations =  3.5

     negative rho (up, down):  6.532E-04 0.000E+00

     total cpu time spent up to now is       20.3 secs

     total energy              =     -39.86478884 Ry
     estimated scf accuracy    <       0.00000001 Ry

     iteration # 12     ecut=    60.00 Ry     beta= 0.70
     CG style diagonalization
     ethr =  1.33E-10,  avg # of iterations =  3.1

     negative rho (up, down):  6.531E-04 0.000E+00

     total cpu time spent up to now is       20.7 secs

     total energy              =     -39.86478884 Ry
     estimated scf accuracy    <          2.5E-09 Ry

     iteration # 13     ecut=    60.00 Ry     beta= 0.70
     CG style diagonalization
     ethr =  3.16E-11,  avg # of iterations =  3.8

     negative rho (up, down):  6.532E-04 0.000E+00

     total cpu time spent up to now is       21.1 secs

     total energy              =     -39.86478884 Ry
     estimated scf accuracy    <          5.1E-09 Ry

     iteration # 14     ecut=    60.00 Ry     beta= 0.70
     CG style diagonalization
     ethr =  3.16E-11,  avg # of iterations =  3.5

     negative rho (up, down):  6.532E-04 0.000E+00

     total cpu time spent up to now is       21.5 secs

     total energy              =     -39.86478884 Ry
     estimated scf accuracy    <          4.6E-11 Ry

     iteration # 15     ecut=    60.00 Ry     beta= 0.70
     CG style diagonalization
     ethr =  5.77E-13,  avg # of iterations =  3.3

     negative rho (up, down):  6.531E-04 0.000E+00

     total cpu time spent up to now is       21.9 secs

     total energy              =     -39.86478884 Ry
     estimated scf accuracy    <          3.2E-11 Ry

     iteration # 16     ecut=    60.00 Ry     beta= 0.70
     CG style diagonalization
     ethr =  4.03E-13,  avg # of iterations =  3.4

     negative rho (up, down):  6.531E-04 0.000E+00

     total cpu time spent up to now is       22.3 secs

     total energy              =     -39.86478884 Ry
     estimated scf accuracy    <          3.1E-12 Ry

     iteration # 17     ecut=    60.00 Ry     beta= 0.70
     CG style diagonalization
     ethr =  1.00E-13,  avg # of iterations =  3.5

     negative rho (up, down):  6.531E-04 0.000E+00

     total cpu time spent up to now is       22.7 secs

     total energy              =     -39.86478884 Ry
     estimated scf accuracy    <          5.4E-12 Ry

     iteration # 18     ecut=    60.00 Ry     beta= 0.70
     CG style diagonalization
     ethr =  1.00E-13,  avg # of iterations =  3.0

     negative rho (up, down):  6.531E-04 0.000E+00

     total cpu time spent up to now is       23.1 secs

     total energy              =     -39.86478884 Ry
     estimated scf accuracy    <          1.0E-12 Ry

     iteration # 19     ecut=    60.00 Ry     beta= 0.70
     CG style diagonalization
     ethr =  1.00E-13,  avg # of iterations =  3.0

     negative rho (up, down):  6.531E-04 0.000E+00

     total cpu time spent up to now is       23.5 secs

     total energy              =     -39.86478884 Ry
     estimated scf accuracy    <          2.0E-13 Ry

     iteration # 20     ecut=    60.00 Ry     beta= 0.70
     CG style diagonalization
     ethr =  1.00E-13,  avg # of iterations =  3.0

     negative rho (up, down):  6.531E-04 0.000E+00

     total cpu time spent up to now is       23.8 secs

     total energy              =     -39.86478884 Ry
     estimated scf accuracy    <          7.7E-14 Ry

     iteration # 21     ecut=    60.00 Ry     beta= 0.70
     CG style diagonalization
     ethr =  1.00E-13,  avg # of iterations =  3.0

     negative rho (up, down):  6.531E-04 0.000E+00

     total cpu time spent up to now is       24.2 secs

     total energy              =     -39.86478884 Ry
     estimated scf accuracy    <          2.9E-14 Ry

     iteration # 22     ecut=    60.00 Ry     beta= 0.70
     CG style diagonalization
     ethr =  1.00E-13,  avg # of iterations =  3.0

     negative rho (up, down):  6.531E-04 0.000E+00

     total cpu time spent up to now is       24.6 secs

     End of self-consistent calculation

          k = 0.0000 0.0000 0.0000 (  4287 PWs)   bands (ev):

   -23.4326 -11.0183  -7.1646  -7.1645  -1.1522  -0.2301   1.1939   2.2031

          k = 0.0000 0.0718 0.0000 (  4258 PWs)   bands (ev):

   -23.3579 -10.9179  -7.4853  -7.3124  -1.0227  -0.1121   1.3213   2.3102

          k = 0.0000 0.1436 0.0000 (  4276 PWs)   bands (ev):

   -23.1360 -10.6191  -8.3503  -7.7045  -0.6450   0.2386   1.6954   2.6182

          k = 0.0000 0.2154 0.0000 (  4292 PWs)   bands (ev):

   -22.7744 -10.1303  -9.5551  -8.2275  -0.0357   0.8071   2.3004   3.0444

          k = 0.0000 0.2872 0.0000 (  4280 PWs)   bands (ev):

   -22.2888 -10.9069  -9.4688  -8.7711   0.7931   1.5038   3.1109   3.1484

          k = 0.0000 0.3590 0.0000 (  4296 PWs)   bands (ev):

   -21.7102 -12.2525  -9.2554  -8.6696   1.5159   1.8188   3.2065   4.0092

          k = 0.0000 0.4308 0.0000 (  4318 PWs)   bands (ev):

   -21.1016 -13.4526  -9.6299  -7.8065   0.4361   2.9434   4.3233   4.5627

          k = 0.0000 0.5025 0.0000 (  4308 PWs)   bands (ev):

   -20.5894 -14.3352  -9.8648  -7.0467  -0.5911   3.7144   5.3123   5.8087

          k =-0.0000-0.5743 0.0000 (  4320 PWs)   bands (ev):

   -20.3767 -14.6739  -9.9448  -6.7150  -1.0249   3.8752   6.5990   7.0363

          k = 0.0622 0.1077 0.0000 (  4287 PWs)   bands (ev):

   -23.2096 -10.7182  -8.0540  -7.6067  -0.7689   0.1223   1.5725   2.5183

          k = 0.0622 0.1795 0.0000 (  4284 PWs)   bands (ev):

   -22.9176 -10.3242  -9.0400  -8.1133  -0.2744   0.5832   2.0650   2.8945

          k = 0.0622 0.2513 0.0000 (  4270 PWs)   bands (ev):

   -22.4932 -10.2774  -9.7482  -8.6882   0.4482   1.2327   2.7833   3.2091

          k = 0.0622 0.3231 0.0000 (  4299 PWs)   bands (ev):

   -21.9585 -11.6009  -9.2294  -9.0148   1.3859   1.7348   3.0429   3.6901

          k = 0.0622 0.3949 0.0000 (  4317 PWs)   bands (ev):

   -21.3577 -12.8641  -9.6748  -8.1744   0.9941   2.5028   3.7732   4.5603

          k = 0.0622 0.4667 0.0000 (  4326 PWs)   bands (ev):

   -20.7805 -13.9128  -9.9879  -7.3376  -0.1253   3.6169   5.0509   5.1143

          k = 0.0622 0.5384 0.0000 (  4319 PWs)   bands (ev):

   -20.3950 -14.5424 -10.1490  -6.7480  -0.9006   4.1438   6.0929   6.6847

          k = 0.1243 0.2154 0.0000 (  4280 PWs)   bands (ev):

   -22.5622  -9.9724  -9.8423  -8.7588   0.3359   1.1320   2.6769   3.2000

          k = 0.1243 0.2872 0.0000 (  4301 PWs)   bands (ev):

   -22.0862 -11.0836  -9.4316  -9.1914   1.1751   1.7205   3.1050   3.5161

          k = 0.1243 0.3590 0.0000 (  4311 PWs)   bands (ev):

   -21.5212 -12.2644 -10.0012  -8.4070   1.4064   2.2281   3.4756   4.5420

          k = 0.1243 0.4308 0.0000 (  4311 PWs)   bands (ev):

   -20.9305 -13.3592 -10.4224  -7.5631   0.3621   3.4517   4.6448   5.4778

          k = 0.1243 0.5025 0.0000 (  4299 PWs)   bands (ev):

   -20.4379 -14.1778 -10.6796  -6.8243  -0.5884   4.6110   5.9826   6.0922

          k = 0.1243 0.5743 0.0000 (  4308 PWs)   bands (ev):

   -20.2351 -14.4931 -10.7660  -6.5034  -0.9905   5.0138   6.9162   7.3245

          k = 0.1865 0.3231 0.0000 (  4312 PWs)   bands (ev):

   -21.5772 -11.9535 -10.2339  -8.4864   1.5545   2.1327   3.3914   4.4818

          k = 0.1865 0.3949 0.0000 (  4303 PWs)   bands (ev):

   -21.0121 -12.8644 -10.8910  -7.6851   0.6861   3.3021   4.4097   5.6395

          k = 0.1865 0.4667 0.0000 (  4295 PWs)   bands (ev):

   -20.4793 -13.6876 -11.3243  -6.8966  -0.2538   4.6338   5.7080   6.6953

          k = 0.1865 0.5384 0.0000 (  4298 PWs)   bands (ev):

   -20.1312 -14.2012 -11.5356  -6.3493  -0.8990   5.8448   6.9306   7.1175

          k = 0.2487 0.4308 0.0000 (  4304 PWs)   bands (ev):

   -20.4959 -13.3934 -11.6795  -6.9255  -0.1065   4.5781   5.5725   6.9177

          k = 0.2487 0.5025 0.0000 (  4294 PWs)   bands (ev):

   -20.0833 -13.8101 -12.1928  -6.2813  -0.7739   5.9757   6.5702   7.8969

          k = 0.2487 0.5743 0.0000 (  4296 PWs)   bands (ev):

   -19.9197 -13.9804 -12.3644  -6.0102  -1.0532   6.7985   6.9275   7.9223

          k = 0.3109 0.5384 0.0000 (  4298 PWs)   bands (ev):

   -19.8446 -13.7392 -12.8212  -5.8871  -1.0941   6.5959   7.1949   8.4677

     highest occupied, lowest unoccupied level (ev):    -5.8871   -1.1522

!    total energy              =     -39.86478884 Ry

     total all-electron energy =      -159.402934 Ry
     estimated scf accuracy    <          1.3E-15 Ry

     The total energy is the sum of the following terms:
     one-electron contribution =    -250.24467682 Ry
     hartree contribution      =     126.37809498 Ry
     xc contribution           =      -8.80673747 Ry
     ewald contribution        =     105.98885054 Ry
     one-center paw contrib.   =     -13.18032007 Ry

     convergence has been achieved in  22 iterations

     negative rho (up, down):  6.531E-04 0.000E+00

     Forces acting on atoms (cartesian axes, Ry/au):

     atom    1 type  1   force =    -0.00000000   -0.00000000    0.00000000
     atom    2 type  2   force =    -0.00000000   -0.00000000    0.00000000

     Total force =     0.000000     Total SCF correction =     0.000000


     Computing stress (Cartesian axis) and pressure


     negative rho (up, down):  6.531E-04 0.000E+00
          total   stress  (Ry/bohr**3)                   (kbar)     P=        1.11
   0.00001332   0.00000000   0.00000000            1.96        0.00        0.00
   0.00000000   0.00001332   0.00000000            0.00        1.96        0.00
  -0.00000000  -0.00000000  -0.00000396           -0.00       -0.00       -0.58

     Energy error            =      1.1E-04 Ry
     Gradient error          =      5.6E-22 Ry/Bohr
     Cell gradient error     =      2.0E+00 kbar

     number of scf cycles    =   3
     number of bfgs steps    =   2

     enthalpy           old  =     -39.8646813194 Ry
     enthalpy           new  =     -39.8647888369 Ry

     CASE: enthalpy          _new < enthalpy          _old

     new trust radius        =       0.0038377995 bohr
     new conv_thr            =            1.0E-14 Ry

     new unit-cell volume =    554.55384 a.u.^3 (    82.17640 Ang^3 )
     density =      0.50149 g/cm^3

CELL_PARAMETERS (alat=  4.72431497)
   1.006057147  -0.000000000   0.000000000
  -0.503028573   0.871271047   0.000000000
   0.000000000   0.000000000   6.000000000

ATOMIC_POSITIONS (crystal)
B             0.3333330000        0.6666670000        0.5000000000
N             0.6666670000        0.3333330000        0.5000000000



     Writing output data file ./TMP_DIR/hBN.save/
     NEW-OLD atomic charge density approx. for the potential

     Check: negative core charge=   -0.000006

     negative rho (up, down):  6.551E-04 0.000E+00
     extrapolated charge    8.01303, renormalised to    8.00000

     total cpu time spent up to now is       25.0 secs

     Self-consistent Calculation

     iteration #  1     ecut=    60.00 Ry     beta= 0.70
     CG style diagonalization
     ethr =  1.00E-06,  avg # of iterations =  4.6

     negative rho (up, down):  6.460E-04 0.000E+00

     total cpu time spent up to now is       25.5 secs

     total energy              =     -39.86462432 Ry
     estimated scf accuracy    <       0.00011138 Ry

     iteration #  2     ecut=    60.00 Ry     beta= 0.70
     CG style diagonalization
     ethr =  1.39E-06,  avg # of iterations =  5.7

     negative rho (up, down):  6.507E-04 0.000E+00

     total cpu time spent up to now is       26.1 secs

     total energy              =     -39.86478377 Ry
     estimated scf accuracy    <       0.00031460 Ry

     iteration #  3     ecut=    60.00 Ry     beta= 0.70
     CG style diagonalization
     ethr =  1.39E-06,  avg # of iterations =  3.3

     negative rho (up, down):  6.539E-04 0.000E+00

     total cpu time spent up to now is       26.5 secs

     total energy              =     -39.86479520 Ry
     estimated scf accuracy    <       0.00004643 Ry

     iteration #  4     ecut=    60.00 Ry     beta= 0.70
     CG style diagonalization
     ethr =  5.80E-07,  avg # of iterations =  3.0

     negative rho (up, down):  6.564E-04 0.000E+00

     total cpu time spent up to now is       26.9 secs

     total energy              =     -39.86479378 Ry
     estimated scf accuracy    <       0.00001341 Ry

     iteration #  5     ecut=    60.00 Ry     beta= 0.70
     CG style diagonalization
     ethr =  1.68E-07,  avg # of iterations =  3.1

     negative rho (up, down):  6.584E-04 0.000E+00

     total cpu time spent up to now is       27.3 secs

     total energy              =     -39.86479412 Ry
     estimated scf accuracy    <       0.00000229 Ry

     iteration #  6     ecut=    60.00 Ry     beta= 0.70
     CG style diagonalization
     ethr =  2.86E-08,  avg # of iterations =  3.6

     negative rho (up, down):  6.587E-04 0.000E+00

     total cpu time spent up to now is       27.7 secs

     total energy              =     -39.86479498 Ry
     estimated scf accuracy    <       0.00000007 Ry

     iteration #  7     ecut=    60.00 Ry     beta= 0.70
     CG style diagonalization
     ethr =  8.71E-10,  avg # of iterations =  3.2

     negative rho (up, down):  6.584E-04 0.000E+00

     total cpu time spent up to now is       28.1 secs

     total energy              =     -39.86479496 Ry
     estimated scf accuracy    <       0.00000008 Ry

     iteration #  8     ecut=    60.00 Ry     beta= 0.70
     CG style diagonalization
     ethr =  8.71E-10,  avg # of iterations =  3.1

     negative rho (up, down):  6.584E-04 0.000E+00

     total cpu time spent up to now is       28.4 secs

     total energy              =     -39.86479496 Ry
     estimated scf accuracy    <       0.00000001 Ry

     iteration #  9     ecut=    60.00 Ry     beta= 0.70
     CG style diagonalization
     ethr =  1.54E-10,  avg # of iterations =  3.5

     negative rho (up, down):  6.584E-04 0.000E+00

     total cpu time spent up to now is       28.8 secs

     total energy              =     -39.86479497 Ry
     estimated scf accuracy    <          1.2E-09 Ry

     iteration # 10     ecut=    60.00 Ry     beta= 0.70
     CG style diagonalization
     ethr =  1.48E-11,  avg # of iterations =  3.1

     negative rho (up, down):  6.585E-04 0.000E+00

     total cpu time spent up to now is       29.2 secs

     total energy              =     -39.86479497 Ry
     estimated scf accuracy    <          1.4E-09 Ry

     iteration # 11     ecut=    60.00 Ry     beta= 0.70
     CG style diagonalization
     ethr =  1.48E-11,  avg # of iterations =  3.5

     negative rho (up, down):  6.585E-04 0.000E+00

     total cpu time spent up to now is       29.6 secs

     total energy              =     -39.86479497 Ry
     estimated scf accuracy    <          1.0E-10 Ry

     iteration # 12     ecut=    60.00 Ry     beta= 0.70
     CG style diagonalization
     ethr =  1.25E-12,  avg # of iterations =  3.1

     negative rho (up, down):  6.585E-04 0.000E+00

     total cpu time spent up to now is       30.0 secs

     total energy              =     -39.86479497 Ry
     estimated scf accuracy    <          6.3E-11 Ry

     iteration # 13     ecut=    60.00 Ry     beta= 0.70
     CG style diagonalization
     ethr =  7.83E-13,  avg # of iterations =  3.6

     negative rho (up, down):  6.585E-04 0.000E+00

     total cpu time spent up to now is       30.4 secs

     total energy              =     -39.86479497 Ry
     estimated scf accuracy    <          9.2E-11 Ry

     iteration # 14     ecut=    60.00 Ry     beta= 0.70
     CG style diagonalization
     ethr =  7.83E-13,  avg # of iterations =  3.1

     negative rho (up, down):  6.585E-04 0.000E+00

     total cpu time spent up to now is       30.8 secs

     total energy              =     -39.86479497 Ry
     estimated scf accuracy    <          1.3E-11 Ry

     iteration # 15     ecut=    60.00 Ry     beta= 0.70
     CG style diagonalization
     ethr =  1.69E-13,  avg # of iterations =  3.6

     negative rho (up, down):  6.585E-04 0.000E+00

     total cpu time spent up to now is       31.2 secs

     total energy              =     -39.86479497 Ry
     estimated scf accuracy    <          1.0E-12 Ry

     iteration # 16     ecut=    60.00 Ry     beta= 0.70
     CG style diagonalization
     ethr =  1.00E-13,  avg # of iterations =  3.0

     negative rho (up, down):  6.585E-04 0.000E+00

     total cpu time spent up to now is       31.6 secs

     total energy              =     -39.86479497 Ry
     estimated scf accuracy    <          1.5E-13 Ry

     iteration # 17     ecut=    60.00 Ry     beta= 0.70
     CG style diagonalization
     ethr =  1.00E-13,  avg # of iterations =  3.0

     negative rho (up, down):  6.585E-04 0.000E+00

     total cpu time spent up to now is       31.9 secs

     total energy              =     -39.86479497 Ry
     estimated scf accuracy    <          2.8E-14 Ry

     iteration # 18     ecut=    60.00 Ry     beta= 0.70
     CG style diagonalization
     ethr =  1.00E-13,  avg # of iterations =  3.0

     negative rho (up, down):  6.585E-04 0.000E+00

     total cpu time spent up to now is       32.3 secs

     End of self-consistent calculation

          k = 0.0000 0.0000 0.0000 (  4287 PWs)   bands (ev):

   -23.4215 -11.0091  -7.1707  -7.1706  -1.1536  -0.2313   1.1908   2.2008

          k = 0.0000 0.0717 0.0000 (  4258 PWs)   bands (ev):

   -23.3469 -10.9089  -7.4911  -7.3181  -1.0242  -0.1136   1.3180   2.3076

          k = 0.0000 0.1435 0.0000 (  4276 PWs)   bands (ev):

   -23.1254 -10.6107  -8.3552  -7.7092  -0.6470   0.2365   1.6916   2.6144

          k = 0.0000 0.2152 0.0000 (  4292 PWs)   bands (ev):

   -22.7645 -10.1229  -9.5584  -8.2310  -0.0387   0.8037   2.2955   3.0376

          k = 0.0000 0.2869 0.0000 (  4280 PWs)   bands (ev):

   -22.2799 -10.9081  -9.4629  -8.7732   0.7886   1.4976   3.1038   3.1349

          k = 0.0000 0.3587 0.0000 (  4296 PWs)   bands (ev):

   -21.7026 -12.2514  -9.2565  -8.6655   1.5022   1.8118   3.1980   3.9956

          k = 0.0000 0.4304 0.0000 (  4318 PWs)   bands (ev):

   -21.0954 -13.4492  -9.6302  -7.8044   0.4236   2.9310   4.3145   4.5409

          k = 0.0000 0.5021 0.0000 (  4308 PWs)   bands (ev):

   -20.5848 -14.3297  -9.8646  -7.0467  -0.6008   3.6905   5.2972   5.7974

          k =-0.0000-0.5739 0.0000 (  4320 PWs)   bands (ev):

   -20.3728 -14.6675  -9.9443  -6.7160  -1.0332   3.8475   6.5851   7.0220

          k = 0.0621 0.1076 0.0000 (  4287 PWs)   bands (ev):

   -23.1988 -10.7096  -8.0592  -7.6116  -0.7708   0.1204   1.5689   2.5149

          k = 0.0621 0.1793 0.0000 (  4284 PWs)   bands (ev):

   -22.9074 -10.3164  -9.0440  -8.1171  -0.2770   0.5804   2.0607   2.8891

          k = 0.0621 0.2511 0.0000 (  4270 PWs)   bands (ev):

   -22.4838 -10.2796  -9.7416  -8.6907   0.4444   1.2279   2.7775   3.1982

          k = 0.0621 0.3228 0.0000 (  4299 PWs)   bands (ev):

   -21.9503 -11.6010  -9.2308  -9.0099   1.3802   1.7240   3.0314   3.6813

          k = 0.0621 0.3945 0.0000 (  4317 PWs)   bands (ev):

   -21.3509 -12.8619  -9.6752  -8.1714   0.9803   2.4940   3.7650   4.5419

          k = 0.0621 0.4663 0.0000 (  4326 PWs)   bands (ev):

   -20.7753 -13.9083  -9.9877  -7.3368  -0.1364   3.6003   5.0301   5.1042

          k = 0.0621 0.5380 0.0000 (  4319 PWs)   bands (ev):

   -20.3911 -14.5362 -10.1484  -6.7488  -0.9094   4.1171   6.0786   6.6717

          k = 0.1242 0.2152 0.0000 (  4280 PWs)   bands (ev):

   -22.5527  -9.9751  -9.8356  -8.7612   0.3324   1.1277   2.6715   3.1903

          k = 0.1242 0.2869 0.0000 (  4301 PWs)   bands (ev):

   -22.0777 -11.0846  -9.4327  -9.1861   1.1702   1.7120   3.0915   3.5091

          k = 0.1242 0.3587 0.0000 (  4311 PWs)   bands (ev):

   -21.5140 -12.2632 -10.0014  -8.4035   1.3917   2.2211   3.4673   4.5318

          k = 0.1242 0.4304 0.0000 (  4311 PWs)   bands (ev):

   -20.9248 -13.3557 -10.4219  -7.5617   0.3493   3.4412   4.6354   5.4570

          k = 0.1242 0.5021 0.0000 (  4299 PWs)   bands (ev):

   -20.4338 -14.1722 -10.6786  -6.8249  -0.5986   4.5916   5.9616   6.0803

          k = 0.1242 0.5739 0.0000 (  4308 PWs)   bands (ev):

   -20.2317 -14.4865 -10.7649  -6.5049  -0.9993   4.9864   6.9014   7.3097

          k = 0.1864 0.3228 0.0000 (  4312 PWs)   bands (ev):

   -21.5699 -11.9529 -10.2337  -8.4827   1.5397   2.1262   3.3828   4.4731

          k = 0.1864 0.3945 0.0000 (  4303 PWs)   bands (ev):

   -21.0062 -12.8616 -10.8900  -7.6832   0.6721   3.2934   4.4006   5.6279

          k = 0.1864 0.4663 0.0000 (  4295 PWs)   bands (ev):

   -20.4750 -13.6827 -11.3228  -6.8969  -0.2654   4.6215   5.6968   6.6727

          k = 0.1864 0.5380 0.0000 (  4298 PWs)   bands (ev):

   -20.1282 -14.1946 -11.5340  -6.3511  -0.9087   5.8233   6.9170   7.0965

          k = 0.2485 0.4304 0.0000 (  4304 PWs)   bands (ev):

   -20.4916 -13.3887 -11.6779  -6.9256  -0.1188   4.5669   5.5615   6.9031

          k = 0.2485 0.5021 0.0000 (  4294 PWs)   bands (ev):

   -20.0804 -13.8034 -12.1910  -6.2833  -0.7844   5.9604   6.5577   7.8720

          k = 0.2485 0.5739 0.0000 (  4296 PWs)   bands (ev):

   -19.9174 -13.9728 -12.3626  -6.0129  -1.0629   6.7863   6.9043   7.9054

          k = 0.3106 0.5380 0.0000 (  4298 PWs)   bands (ev):

   -19.8426 -13.7301 -12.8205  -5.8902  -1.1039   6.5846   7.1735   8.4471

     highest occupied, lowest unoccupied level (ev):    -5.8902   -1.1536

!    total energy              =     -39.86479497 Ry

     total all-electron energy =      -159.402940 Ry
     estimated scf accuracy    <          2.1E-16 Ry

     The total energy is the sum of the following terms:
     one-electron contribution =    -249.83846025 Ry
     hartree contribution      =     126.17355981 Ry
     xc contribution           =      -8.80331528 Ry
     ewald contribution        =     105.78369746 Ry
     one-center paw contrib.   =     -13.18027672 Ry

     convergence has been achieved in  18 iterations

     negative rho (up, down):  6.585E-04 0.000E+00

     Forces acting on atoms (cartesian axes, Ry/au):

     atom    1 type  1   force =    -0.00000000   -0.00000000    0.00000000
     atom    2 type  2   force =     0.00000000    0.00000000    0.00000000

     Total force =     0.000000     Total SCF correction =     0.000000


     Computing stress (Cartesian axis) and pressure


     negative rho (up, down):  6.585E-04 0.000E+00
          total   stress  (Ry/bohr**3)                   (kbar)     P=       -0.18
   0.00000018  -0.00000000   0.00000000            0.03       -0.00        0.00
  -0.00000000   0.00000018   0.00000000           -0.00        0.03        0.00
   0.00000000   0.00000000  -0.00000394            0.00        0.00       -0.58

     Energy error            =      6.1E-06 Ry
     Gradient error          =      5.6E-22 Ry/Bohr
     Cell gradient error     =      2.6E-02 kbar

     bfgs converged in   4 scf cycles and   3 bfgs steps
     (criteria: energy <  1.0E-04 Ry, force <  1.9E-10Ry/Bohr, cell <  5.0E-01kbar)

     End of BFGS Geometry Optimization

     Final enthalpy           =     -39.8647949682 Ry

     File ./TMP_DIR/hBN.bfgs deleted, as requested
Begin final coordinates
     new unit-cell volume =    554.55384 a.u.^3 (    82.17640 Ang^3 )
     density =      0.50149 g/cm^3

CELL_PARAMETERS (alat=  4.72431497)
   1.006057147  -0.000000000   0.000000000
  -0.503028573   0.871271047   0.000000000
   0.000000000   0.000000000   6.000000000

ATOMIC_POSITIONS (crystal)
B             0.3333330000        0.6666670000        0.5000000000
N             0.6666670000        0.3333330000        0.5000000000
End final coordinates



     Writing output data file ./TMP_DIR/hBN.save/

     Final scf calculation at the relaxed structure.
     The G-vectors are recalculated for the final unit cell
     Results may differ from those at the preceding step.
 
     Parallelization info
     --------------------
     sticks:   dense  smooth     PW     G-vecs:    dense   smooth      PW
     Min          11      11      3                 1075     1075     177
     Max          12      12      4                 1100     1100     202
     Sum         367     367    121                34765    34765    6005
 
     Using Slab Decomposition
 


     bravais-lattice index     =            4
     lattice parameter (alat)  =       4.7243  a.u.
     unit-cell volume          =     554.5538 (a.u.)^3
     number of atoms/cell      =            2
     number of atomic types    =            2
     number of electrons       =         8.00
     number of Kohn-Sham states=            8
     kinetic-energy cutoff     =      60.0000  Ry
     charge density cutoff     =     240.0000  Ry
     scf convergence threshold =      1.0E-14
     mixing beta               =       0.7000
     number of iterations used =            8  plain     mixing
     press convergence thresh. =      5.0E-01
     Exchange-correlation= SLA  PW   PBX  PBC
                           (   1   4   3   4   0   0   0)

     celldm(1)=   4.724315  celldm(2)=   0.000000  celldm(3)=   6.000000
     celldm(4)=   0.000000  celldm(5)=   0.000000  celldm(6)=   0.000000

     crystal axes: (cart. coord. in units of alat)
               a(1) = (   1.006057  -0.000000   0.000000 )  
               a(2) = (  -0.503029   0.871271   0.000000 )  
               a(3) = (   0.000000   0.000000   6.000000 )  

     reciprocal axes: (cart. coord. in units 2 pi/alat)
               b(1) = (  0.993979  0.573874  0.000000 )  
               b(2) = (  0.000000  1.147748  0.000000 )  
               b(3) = (  0.000000  0.000000  0.166667 )  


     PseudoPot. # 1 for B  read from file:
     ./pseudo/B.pbe-n-kjpaw_psl.1.0.0.UPF
     MD5 check sum: 8c825a5969375aca5c2c6ad5945b3059
     Pseudo is Projector augmented-wave + core cor, Zval =  3.0
     Generated using &quot;atomic&quot; code by A. Dal Corso  v.6.3
     Shape of augmentation charge: PSQ
     Using radial grid of 1059 points,  4 beta functions with: 
                l(1) =   0
                l(2) =   0
                l(3) =   1
                l(4) =   1
     Q(r) pseudized with 0 coefficients 


     PseudoPot. # 2 for N  read from file:
     ./pseudo/N.pbe-n-kjpaw_psl.1.0.0.UPF
     MD5 check sum: 14c48229446f9f2d411169a3abcbc3fa
     Pseudo is Projector augmented-wave + core cor, Zval =  5.0
     Generated using &quot;atomic&quot; code by A. Dal Corso  v.6.3
     Shape of augmentation charge: PSQ
     Using radial grid of 1085 points,  4 beta functions with: 
                l(1) =   0
                l(2) =   0
                l(3) =   1
                l(4) =   1
     Q(r) pseudized with 0 coefficients 


     atomic species   valence    mass     pseudopotential
        B              3.00    10.81100     B ( 1.00)
        N              5.00    14.00670     N ( 1.00)

     12 Sym. Ops. (no inversion) found



   Cartesian axes

     site n.     atom                  positions (alat units)
         1           B   tau(   1) = (  -0.0000005   0.5808477   3.0000000  )
         2           N   tau(   2) = (   0.5030291   0.2904234   3.0000000  )

     number of k points=    30
                       cart. coord. in units 2pi/alat
        k(    1) = (   0.0000000   0.0000000   0.0000000), wk =   0.0078125
        k(    2) = (   0.0000000   0.0717343   0.0000000), wk =   0.0468750
        k(    3) = (   0.0000000   0.1434686   0.0000000), wk =   0.0468750
        k(    4) = (   0.0000000   0.2152028   0.0000000), wk =   0.0468750
        k(    5) = (   0.0000000   0.2869371   0.0000000), wk =   0.0468750
        k(    6) = (   0.0000000   0.3586714   0.0000000), wk =   0.0468750
        k(    7) = (   0.0000000   0.4304057   0.0000000), wk =   0.0468750
        k(    8) = (   0.0000000   0.5021400   0.0000000), wk =   0.0468750
        k(    9) = (  -0.0000000  -0.5738742   0.0000000), wk =   0.0234375
        k(   10) = (   0.0621237   0.1076014   0.0000000), wk =   0.0468750
        k(   11) = (   0.0621237   0.1793357   0.0000000), wk =   0.0937500
        k(   12) = (   0.0621237   0.2510700   0.0000000), wk =   0.0937500
        k(   13) = (   0.0621237   0.3228043   0.0000000), wk =   0.0937500
        k(   14) = (   0.0621237   0.3945385   0.0000000), wk =   0.0937500
        k(   15) = (   0.0621237   0.4662728   0.0000000), wk =   0.0937500
        k(   16) = (   0.0621237   0.5380071   0.0000000), wk =   0.0937500
        k(   17) = (   0.1242474   0.2152028   0.0000000), wk =   0.0468750
        k(   18) = (   0.1242474   0.2869371   0.0000000), wk =   0.0937500
        k(   19) = (   0.1242474   0.3586714   0.0000000), wk =   0.0937500
        k(   20) = (   0.1242474   0.4304057   0.0000000), wk =   0.0937500
        k(   21) = (   0.1242474   0.5021400   0.0000000), wk =   0.0937500
        k(   22) = (   0.1242474   0.5738742   0.0000000), wk =   0.0468750
        k(   23) = (   0.1863711   0.3228043   0.0000000), wk =   0.0468750
        k(   24) = (   0.1863711   0.3945385   0.0000000), wk =   0.0937500
        k(   25) = (   0.1863711   0.4662728   0.0000000), wk =   0.0937500
        k(   26) = (   0.1863711   0.5380071   0.0000000), wk =   0.0937500
        k(   27) = (   0.2484948   0.4304057   0.0000000), wk =   0.0468750
        k(   28) = (   0.2484948   0.5021400   0.0000000), wk =   0.0937500
        k(   29) = (   0.2484948   0.5738742   0.0000000), wk =   0.0468750
        k(   30) = (   0.3106185   0.5380071   0.0000000), wk =   0.0468750

     Dense  grid:    34765 G-vectors     FFT dimensions: (  24,  24, 144)

     Estimated max dynamical RAM per process >       3.51 MB

     Estimated total dynamical RAM >     112.37 MB
 ----2D----2D----2D----2D----2D----2D----2D----2D----2D----2D----2D----2D
  The code is running with the 2D cutoff
  Please refer to:
  Sohier, T., Calandra, M., & Mauri, F. (2017), 
  Density functional perturbation theory for gated two-dimensional heterostructu
 res:
  Theoretical developments and application to flexural phonons in graphene.
  Physical Review B, 96(7), 75448. https://doi.org/10.1103/PhysRevB.96.075448
 ----2D----2D----2D----2D----2D----2D----2D----2D----2D----2D----2D----2D

     Check: negative core charge=   -0.000006

     Initial potential from superposition of free atoms

     starting charge    7.99971, renormalised to    8.00000

     negative rho (up, down):  3.243E-04 0.000E+00
     Starting wfcs are    8 randomized atomic wfcs
     Checking if some PAW data can be deallocated... 

     total cpu time spent up to now is       32.9 secs

     Self-consistent Calculation

     iteration #  1     ecut=    60.00 Ry     beta= 0.70
     CG style diagonalization
     c_bands:  1 eigenvalues not converged
     c_bands:  3 eigenvalues not converged
     c_bands:  5 eigenvalues not converged
     c_bands:  1 eigenvalues not converged
     c_bands:  1 eigenvalues not converged
     c_bands:  1 eigenvalues not converged
     c_bands:  1 eigenvalues not converged
     c_bands:  1 eigenvalues not converged
     c_bands:  1 eigenvalues not converged
     c_bands:  4 eigenvalues not converged
     c_bands:  5 eigenvalues not converged
     c_bands:  1 eigenvalues not converged
     c_bands:  1 eigenvalues not converged
     c_bands:  1 eigenvalues not converged
     c_bands:  1 eigenvalues not converged
     c_bands:  1 eigenvalues not converged
     c_bands:  2 eigenvalues not converged
     c_bands:  1 eigenvalues not converged
     c_bands:  1 eigenvalues not converged
     c_bands:  1 eigenvalues not converged
     c_bands:  1 eigenvalues not converged
     c_bands:  1 eigenvalues not converged
     c_bands:  1 eigenvalues not converged
     c_bands:  1 eigenvalues not converged
     c_bands:  1 eigenvalues not converged
     c_bands:  1 eigenvalues not converged
     c_bands:  1 eigenvalues not converged
     c_bands:  1 eigenvalues not converged
     c_bands:  1 eigenvalues not converged
     c_bands:  1 eigenvalues not converged
     ethr =  1.00E-06,  avg # of iterations = 12.8

     negative rho (up, down):  5.564E-04 0.000E+00

     total cpu time spent up to now is       34.3 secs

     total energy              =     -39.73071321 Ry
     estimated scf accuracy    <       0.39911818 Ry

     iteration #  2     ecut=    60.00 Ry     beta= 0.70
     CG style diagonalization
     ethr =  4.99E-03,  avg # of iterations =  3.8

     negative rho (up, down):  5.387E-04 0.000E+00

     total cpu time spent up to now is       34.7 secs

     total energy              =     -39.81817540 Ry
     estimated scf accuracy    <       0.21394472 Ry

     iteration #  3     ecut=    60.00 Ry     beta= 0.70
     CG style diagonalization
     ethr =  2.67E-03,  avg # of iterations =  3.4

     negative rho (up, down):  5.945E-04 0.000E+00

     total cpu time spent up to now is       35.1 secs

     total energy              =     -39.86405951 Ry
     estimated scf accuracy    <       0.00139959 Ry

     iteration #  4     ecut=    60.00 Ry     beta= 0.70
     CG style diagonalization
     ethr =  1.75E-05,  avg # of iterations =  5.3

     negative rho (up, down):  6.324E-04 0.000E+00

     total cpu time spent up to now is       35.7 secs

     total energy              =     -39.86457692 Ry
     estimated scf accuracy    <       0.00085692 Ry

     iteration #  5     ecut=    60.00 Ry     beta= 0.70
     CG style diagonalization
     ethr =  1.07E-05,  avg # of iterations =  3.6

     negative rho (up, down):  6.325E-04 0.000E+00

     total cpu time spent up to now is       36.1 secs

     total energy              =     -39.86480774 Ry
     estimated scf accuracy    <       0.00008394 Ry

     iteration #  6     ecut=    60.00 Ry     beta= 0.70
     CG style diagonalization
     ethr =  1.05E-06,  avg # of iterations =  3.4

     negative rho (up, down):  6.308E-04 0.000E+00

     total cpu time spent up to now is       36.5 secs

     total energy              =     -39.86481284 Ry
     estimated scf accuracy    <       0.00000948 Ry

     iteration #  7     ecut=    60.00 Ry     beta= 0.70
     CG style diagonalization
     ethr =  1.18E-07,  avg # of iterations =  3.6

     negative rho (up, down):  6.310E-04 0.000E+00

     total cpu time spent up to now is       36.9 secs

     total energy              =     -39.86481744 Ry
     estimated scf accuracy    <       0.00000170 Ry

     iteration #  8     ecut=    60.00 Ry     beta= 0.70
     CG style diagonalization
     ethr =  2.12E-08,  avg # of iterations =  3.3

     negative rho (up, down):  6.310E-04 0.000E+00

     total cpu time spent up to now is       37.3 secs

     total energy              =     -39.86481773 Ry
     estimated scf accuracy    <       0.00000002 Ry

     iteration #  9     ecut=    60.00 Ry     beta= 0.70
     CG style diagonalization
     ethr =  2.36E-10,  avg # of iterations =  3.8

     negative rho (up, down):  6.310E-04 0.000E+00

     total cpu time spent up to now is       37.8 secs

     total energy              =     -39.86481775 Ry
     estimated scf accuracy    <          4.7E-10 Ry

     iteration # 10     ecut=    60.00 Ry     beta= 0.70
     CG style diagonalization
     ethr =  5.89E-12,  avg # of iterations =  4.1

     negative rho (up, down):  6.310E-04 0.000E+00

     total cpu time spent up to now is       38.2 secs

     total energy              =     -39.86481775 Ry
     estimated scf accuracy    <          4.6E-09 Ry

     iteration # 11     ecut=    60.00 Ry     beta= 0.70
     CG style diagonalization
     ethr =  5.89E-12,  avg # of iterations =  3.8

     negative rho (up, down):  6.310E-04 0.000E+00

     total cpu time spent up to now is       38.7 secs

     total energy              =     -39.86481775 Ry
     estimated scf accuracy    <          8.8E-11 Ry

     iteration # 12     ecut=    60.00 Ry     beta= 0.70
     CG style diagonalization
     ethr =  1.09E-12,  avg # of iterations =  3.5

     negative rho (up, down):  6.310E-04 0.000E+00

     total cpu time spent up to now is       39.1 secs

     total energy              =     -39.86481775 Ry
     estimated scf accuracy    <          6.4E-11 Ry

     iteration # 13     ecut=    60.00 Ry     beta= 0.70
     CG style diagonalization
     ethr =  8.04E-13,  avg # of iterations =  3.4

     negative rho (up, down):  6.310E-04 0.000E+00

     total cpu time spent up to now is       39.5 secs

     total energy              =     -39.86481775 Ry
     estimated scf accuracy    <          1.9E-12 Ry

     iteration # 14     ecut=    60.00 Ry     beta= 0.70
     CG style diagonalization
     ethr =  1.00E-13,  avg # of iterations =  3.0

     negative rho (up, down):  6.310E-04 0.000E+00

     total cpu time spent up to now is       39.9 secs

     total energy              =     -39.86481775 Ry
     estimated scf accuracy    <          4.2E-13 Ry

     iteration # 15     ecut=    60.00 Ry     beta= 0.70
     CG style diagonalization
     ethr =  1.00E-13,  avg # of iterations =  3.0

     negative rho (up, down):  6.310E-04 0.000E+00

     total cpu time spent up to now is       40.2 secs

     total energy              =     -39.86481775 Ry
     estimated scf accuracy    <          2.8E-13 Ry

     iteration # 16     ecut=    60.00 Ry     beta= 0.70
     CG style diagonalization
     ethr =  1.00E-13,  avg # of iterations =  3.0

     negative rho (up, down):  6.310E-04 0.000E+00

     total cpu time spent up to now is       40.6 secs

     total energy              =     -39.86481775 Ry
     estimated scf accuracy    <          1.2E-13 Ry

     iteration # 17     ecut=    60.00 Ry     beta= 0.70
     CG style diagonalization
     ethr =  1.00E-13,  avg # of iterations =  3.0

     negative rho (up, down):  6.310E-04 0.000E+00

     total cpu time spent up to now is       40.9 secs

     total energy              =     -39.86481775 Ry
     estimated scf accuracy    <          1.9E-13 Ry

     iteration # 18     ecut=    60.00 Ry     beta= 0.70
     CG style diagonalization
     ethr =  1.00E-13,  avg # of iterations =  3.0

     negative rho (up, down):  6.310E-04 0.000E+00

     total cpu time spent up to now is       41.3 secs

     End of self-consistent calculation

          k = 0.0000 0.0000 0.0000 (  4323 PWs)   bands (ev):

   -23.4213 -11.0090  -7.1706  -7.1705  -1.1503  -0.2241   1.2018   2.2097

          k = 0.0000 0.0717 0.0000 (  4331 PWs)   bands (ev):

   -23.3468 -10.9088  -7.4911  -7.3180  -1.0209  -0.1064   1.3290   2.3165

          k = 0.0000 0.1435 0.0000 (  4316 PWs)   bands (ev):

   -23.1253 -10.6106  -8.3551  -7.7092  -0.6437   0.2435   1.7026   2.6232

          k = 0.0000 0.2152 0.0000 (  4324 PWs)   bands (ev):

   -22.7644 -10.1228  -9.5583  -8.2309  -0.0354   0.8103   2.3063   3.0457

          k = 0.0000 0.2869 0.0000 (  4342 PWs)   bands (ev):

   -22.2798 -10.9080  -9.4628  -8.7732   0.7917   1.5027   3.1144   3.1408

          k = 0.0000 0.3587 0.0000 (  4354 PWs)   bands (ev):

   -21.7025 -12.2514  -9.2564  -8.6654   1.5029   1.8146   3.2058   4.0040

          k = 0.0000 0.4304 0.0000 (  4374 PWs)   bands (ev):

   -21.0953 -13.4491  -9.6301  -7.8044   0.4237   2.9329   4.3220   4.5447

          k = 0.0000 0.5021 0.0000 (  4382 PWs)   bands (ev):

   -20.5847 -14.3297  -9.8646  -7.0466  -0.6007   3.6909   5.3007   5.8043

          k =-0.0000-0.5739 0.0000 (  4340 PWs)   bands (ev):

   -20.3727 -14.6674  -9.9443  -6.7158  -1.0331   3.8476   6.5870   7.0268

          k = 0.0621 0.1076 0.0000 (  4319 PWs)   bands (ev):

   -23.1987 -10.7096  -8.0591  -7.6116  -0.7675   0.1275   1.5799   2.5238

          k = 0.0621 0.1793 0.0000 (  4326 PWs)   bands (ev):

   -22.9073 -10.3164  -9.0439  -8.1170  -0.2736   0.5872   2.0716   2.8976

          k = 0.0621 0.2511 0.0000 (  4328 PWs)   bands (ev):

   -22.4837 -10.2796  -9.7415  -8.6906   0.4477   1.2340   2.7883   3.2050

          k = 0.0621 0.3228 0.0000 (  4343 PWs)   bands (ev):

   -21.9502 -11.6009  -9.2307  -9.0098   1.3833   1.7264   3.0382   3.6916

          k = 0.0621 0.3945 0.0000 (  4362 PWs)   bands (ev):

   -21.3508 -12.8618  -9.6751  -8.1713   0.9805   2.4966   3.7728   4.5484

          k = 0.0621 0.4663 0.0000 (  4360 PWs)   bands (ev):

   -20.7752 -13.9082  -9.9876  -7.3367  -0.1363   3.6016   5.0335   5.1114

          k = 0.0621 0.5380 0.0000 (  4356 PWs)   bands (ev):

   -20.3909 -14.5361 -10.1483  -6.7487  -0.9093   4.1173   6.0817   6.6779

          k = 0.1242 0.2152 0.0000 (  4336 PWs)   bands (ev):

   -22.5526  -9.9751  -9.8355  -8.7611   0.3357   1.1339   2.6825   3.1975

          k = 0.1242 0.2869 0.0000 (  4351 PWs)   bands (ev):

   -22.0776 -11.0845  -9.4327  -9.1860   1.1734   1.7159   3.0974   3.5200

          k = 0.1242 0.3587 0.0000 (  4354 PWs)   bands (ev):

   -21.5139 -12.2631 -10.0013  -8.4034   1.3921   2.2241   3.4752   4.5421

          k = 0.1242 0.4304 0.0000 (  4357 PWs)   bands (ev):

   -20.9247 -13.3556 -10.4218  -7.5616   0.3494   3.4437   4.6427   5.4628

          k = 0.1242 0.5021 0.0000 (  4360 PWs)   bands (ev):

   -20.4337 -14.1722 -10.6786  -6.8248  -0.5985   4.5927   5.9646   6.0865

          k = 0.1242 0.5739 0.0000 (  4346 PWs)   bands (ev):

   -20.2316 -14.4865 -10.7648  -6.5048  -0.9993   4.9866   6.9031   7.3130

          k = 0.1864 0.3228 0.0000 (  4360 PWs)   bands (ev):

   -21.5698 -11.9528 -10.2337  -8.4826   1.5402   2.1293   3.3906   4.4840

          k = 0.1864 0.3945 0.0000 (  4371 PWs)   bands (ev):

   -21.0061 -12.8616 -10.8900  -7.6832   0.6722   3.2962   4.4079   5.6384

          k = 0.1864 0.4663 0.0000 (  4371 PWs)   bands (ev):

   -20.4749 -13.6826 -11.3228  -6.8968  -0.2653   4.6238   5.7029   6.6784

          k = 0.1864 0.5380 0.0000 (  4360 PWs)   bands (ev):

   -20.1281 -14.1946 -11.5339  -6.3510  -0.9086   5.8243   6.9197   7.0987

          k = 0.2485 0.4304 0.0000 (  4384 PWs)   bands (ev):

   -20.4915 -13.3887 -11.6778  -6.9255  -0.1188   4.5695   5.5675   6.9133

          k = 0.2485 0.5021 0.0000 (  4366 PWs)   bands (ev):

   -20.0803 -13.8034 -12.1909  -6.2832  -0.7843   5.9623   6.5600   7.8755

          k = 0.2485 0.5739 0.0000 (  4350 PWs)   bands (ev):

   -19.9173 -13.9727 -12.3625  -6.0129  -1.0628   6.7867   6.9049   7.9072

          k = 0.3106 0.5380 0.0000 (  4348 PWs)   bands (ev):

   -19.8425 -13.7300 -12.8204  -5.8901  -1.1038   6.5849   7.1743   8.4489

     highest occupied, lowest unoccupied level (ev):    -5.8901   -1.1503

!    total energy              =     -39.86481775 Ry

     total all-electron energy =      -159.402963 Ry
     estimated scf accuracy    <          4.2E-15 Ry

     The total energy is the sum of the following terms:
     one-electron contribution =    -249.83855420 Ry
     hartree contribution      =     126.17363071 Ry
     xc contribution           =      -8.80329557 Ry
     ewald contribution        =     105.78369746 Ry
     one-center paw contrib.   =     -13.18029615 Ry

     convergence has been achieved in  18 iterations

     negative rho (up, down):  6.310E-04 0.000E+00

     Forces acting on atoms (cartesian axes, Ry/au):

     atom    1 type  1   force =    -0.00000000   -0.00000000    0.00000000
     atom    2 type  2   force =    -0.00000000   -0.00000000    0.00000000

     Total force =     0.000000     Total SCF correction =     0.000000


     Computing stress (Cartesian axis) and pressure


     negative rho (up, down):  6.310E-04 0.000E+00
          total   stress  (Ry/bohr**3)                   (kbar)     P=       -0.19
  -0.00000000  -0.00000000   0.00000000           -0.00       -0.00        0.00
   0.00000000  -0.00000000   0.00000000            0.00       -0.00        0.00
  -0.00000000   0.00000000  -0.00000397           -0.00        0.00       -0.58


     Writing output data file ./TMP_DIR/hBN.save/
 
     init_run     :      0.60s CPU      0.78s WALL (       2 calls)
     electrons    :     34.67s CPU     38.45s WALL (       5 calls)
     update_pot   :      0.41s CPU      0.42s WALL (       3 calls)
     forces       :      0.38s CPU      0.39s WALL (       5 calls)
     stress       :      0.82s CPU      0.83s WALL (       5 calls)

     Called by init_run:
     wfcinit      :      0.30s CPU      0.39s WALL (       2 calls)
     potinit      :      0.09s CPU      0.11s WALL (       2 calls)
     hinit0       :      0.18s CPU      0.19s WALL (       2 calls)

     Called by electrons:
     c_bands      :     30.50s CPU     33.70s WALL (      89 calls)
     sum_band     :      2.82s CPU      2.98s WALL (      89 calls)
     v_of_rho     :      0.21s CPU      0.26s WALL (      94 calls)
     newd         :      0.11s CPU      0.16s WALL (      94 calls)
     PAW_pot      :      1.00s CPU      1.15s WALL (      97 calls)
     mix_rho      :      0.08s CPU      0.08s WALL (      89 calls)

     Called by c_bands:
     init_us_2    :      0.19s CPU      0.21s WALL (    5790 calls)
     ccgdiagg     :     20.98s CPU     23.04s WALL (    2670 calls)
     wfcrot       :      9.37s CPU     10.07s WALL (    2580 calls)

     Called by *cgdiagg:
     h_psi        :     18.69s CPU     20.54s WALL (   61121 calls)
     s_psi        :      0.48s CPU      0.54s WALL (  119662 calls)

     Called by h_psi:
     h_psi:calbec :      2.28s CPU      2.49s WALL (   61121 calls)
     vloc_psi     :     15.41s CPU     16.96s WALL (   61121 calls)
     add_vuspsi   :      0.29s CPU      0.32s WALL (   61121 calls)
     hs_1psi      :     15.25s CPU     16.71s WALL (   58541 calls)
     s_1psi       :      1.84s CPU      2.01s WALL (   58541 calls)

     General routines
     calbec       :      3.33s CPU      3.64s WALL (  123172 calls)
     fft          :      0.17s CPU      0.19s WALL (    1162 calls)
     ffts         :      0.01s CPU      0.01s WALL (      89 calls)
     fftw         :     16.74s CPU     18.33s WALL (  179722 calls)
 
     Parallel routines
 
     PWSCF        :     37.28s CPU     42.16s WALL

 
   This run was terminated on:  11:30: 9  12Oct2022            

=------------------------------------------------------------------------------=
   JOB DONE.
=------------------------------------------------------------------------------=
