
     Program PWSCF v.6.8 starts on 26Nov2022 at 11:48:26 

     This program is part of the open-source Quantum ESPRESSO suite
     for quantum simulation of materials; please cite
         "P. Giannozzi et al., J. Phys.:Condens. Matter 21 395502 (2009);
         "P. Giannozzi et al., J. Phys.:Condens. Matter 29 465901 (2017);
         "P. Giannozzi et al., J. Chem. Phys. 152 154105 (2020);
          URL http://www.quantum-espresso.org", 
     in publications or presentations arising from this work. More details at
     http://www.quantum-espresso.org/quote

     Parallel version (MPI & OpenMP), running on     128 processor cores
     Number of MPI processes:               128
     Threads/MPI process:                     1

     MPI processes distributed on     4 nodes
     R & G space division:  proc/nbgrp/npool/nimage =     128
     165565 MiB available memory on the printing compute node when the environment starts
 
     Waiting for input...
     Reading input from standard input

     Current dimensions of program PWSCF are:
     Max number of different atomic species (ntypx) = 10
     Max number of k-points (npk) =  40000
     Max angular momentum in pseudopotentials (lmaxx) =  4
     file N.pbe-n-kjpaw_psl.1.0.0.UPF: wavefunction(s)  2S renormalized
     file C.pbe-n-kjpaw_psl.1.0.0.UPF: wavefunction(s)  2S 2P renormalized
     Message from routine setup:
     using ibrav=0 with symmetry is DISCOURAGED, use correct ibrav instead

     Subspace diagonalization in iterative solution of the eigenvalue problem:
     one sub-group per band group will be used
     scalapack distributed-memory algorithm (size of sub-group: 11* 11 procs)

 
     Parallelization info
     --------------------
     sticks:   dense  smooth     PW     G-vecs:    dense   smooth      PW
     Min         152      73     19                20548     6833     941
     Max         153      74     20                20559     6842     948
     Sum       19551    9383   2523              2631003   874973  120903
 
     Using Slab Decomposition
 


     bravais-lattice index     =            0
     lattice parameter (alat)  =      23.7646  a.u.
     unit-cell volume          =   13934.9312 (a.u.)^3
     number of atoms/cell      =           50
     number of atomic types    =            3
     number of electrons       =       199.00
     number of Kohn-Sham states=          120
     kinetic-energy cutoff     =      60.0000  Ry
     charge density cutoff     =     500.0000  Ry
     scf convergence threshold =      1.0E-12
     mixing beta               =       0.7000
     number of iterations used =            8  plain     mixing
     energy convergence thresh.=      1.0E-04
     force convergence thresh. =      1.9E-10
     press convergence thresh. =      5.0E-03
     Exchange-correlation= SLA  PW   PBX  PBC
                           (   1   4   3   4   0   0   0)
     nstep                     =         2000


     celldm(1)=  23.764638  celldm(2)=   0.000000  celldm(3)=   0.000000
     celldm(4)=   0.000000  celldm(5)=   0.000000  celldm(6)=   0.000000

     crystal axes: (cart. coord. in units of alat)
               a(1) = (   1.002932  -0.000644   0.000000 )  
               a(2) = (  -0.502021   0.868245   0.000000 )  
               a(3) = (   0.000000   0.000000   1.192775 )  

     reciprocal axes: (cart. coord. in units 2 pi/alat)
               b(1) = (  0.997447  0.576725  0.000000 )  
               b(2) = (  0.000740  1.152177  0.000000 )  
               b(3) = (  0.000000  0.000000  0.838381 )  


     PseudoPot. # 1 for B  read from file:
     ./pseudo/B.pbe-n-kjpaw_psl.1.0.0.UPF
     MD5 check sum: 8c825a5969375aca5c2c6ad5945b3059
     Pseudo is Projector augmented-wave + core cor, Zval =  3.0
     Generated using &quot;atomic&quot; code by A. Dal Corso  v.6.3
     Shape of augmentation charge: PSQ
     Using radial grid of 1059 points,  4 beta functions with: 
                l(1) =   0
                l(2) =   0
                l(3) =   1
                l(4) =   1
     Q(r) pseudized with 0 coefficients 


     PseudoPot. # 2 for N  read from file:
     ./pseudo/N.pbe-n-kjpaw_psl.1.0.0.UPF
     MD5 check sum: 14c48229446f9f2d411169a3abcbc3fa
     Pseudo is Projector augmented-wave + core cor, Zval =  5.0
     Generated using &quot;atomic&quot; code by A. Dal Corso  v.6.3
     Shape of augmentation charge: PSQ
     Using radial grid of 1085 points,  4 beta functions with: 
                l(1) =   0
                l(2) =   0
                l(3) =   1
                l(4) =   1
     Q(r) pseudized with 0 coefficients 


     PseudoPot. # 3 for C  read from file:
     ./pseudo/C.pbe-n-kjpaw_psl.1.0.0.UPF
     MD5 check sum: 5f16ad9a65e90284d1d834d4ab3b0f7d
     Pseudo is Projector augmented-wave + core cor, Zval =  4.0
     Generated using &quot;atomic&quot; code by A. Dal Corso  v.6.3
     Shape of augmentation charge: PSQ
     Using radial grid of 1073 points,  4 beta functions with: 
                l(1) =   0
                l(2) =   0
                l(3) =   1
                l(4) =   1
     Q(r) pseudized with 0 coefficients 


     atomic species   valence    mass     pseudopotential
        B              3.00    10.81100     B ( 1.00)
        N              5.00    14.00670     N ( 1.00)
        C              4.00    12.01070     C ( 1.00)

      2 Sym. Ops. (no inversion) found



   Cartesian axes

     site n.     atom                  positions (alat units)
         1           B   tau(   1) = (  -0.0001811   0.1152846   0.5963877  )
         2           B   tau(   2) = (  -0.0999400   0.2896191   0.5963877  )
         3           B   tau(   3) = (  -0.2016271   0.4632574   0.5963877  )
         4           B   tau(   4) = (  -0.3016770   0.6368537   0.5963877  )
         5           B   tau(   5) = (  -0.4016039   0.8102689   0.5963877  )
         6           B   tau(   6) = (   0.2010370   0.1141147   0.5963877  )
         7           B   tau(   7) = (   0.1014487   0.2859447   0.5963877  )
         8           B   tau(   8) = (  -0.0020699   0.4661043   0.5963877  )
         9           B   tau(   9) = (  -0.1031908   0.6379793   0.5963877  )
        10           B   tau(  10) = (  -0.2014585   0.8104364   0.5963877  )
        11           B   tau(  11) = (   0.4010339   0.1157708   0.5963877  )
        12           B   tau(  12) = (   0.3002225   0.2888106   0.5963877  )
        13           C   tau(  13) = (   0.2019028   0.4618326   0.5963877  )
        14           B   tau(  14) = (   0.0962177   0.6363427   0.5963877  )
        15           B   tau(  15) = (  -0.0010947   0.8105881   0.5963877  )
        16           B   tau(  16) = (   0.6017394   0.1152782   0.5963877  )
        17           B   tau(  17) = (   0.5013459   0.2889482   0.5963877  )
        18           B   tau(  18) = (   0.4009041   0.4631954   0.5963877  )
        19           B   tau(  19) = (   0.3039998   0.6367719   0.5963877  )
        20           B   tau(  20) = (   0.2001240   0.8093429   0.5963877  )
        21           B   tau(  21) = (   0.8024362   0.1151129   0.5963877  )
        22           B   tau(  22) = (   0.7019453   0.2888392   0.5963877  )
        23           B   tau(  23) = (   0.6011666   0.4624093   0.5963877  )
        24           B   tau(  24) = (   0.5026031   0.6364402   0.5963877  )
        25           B   tau(  25) = (   0.4009816   0.8101156   0.5963877  )
        26           N   tau(  26) = (   0.1003334   0.0574638   0.5963877  )
        27           N   tau(  27) = (  -0.0000100   0.2303964   0.5963877  )
        28           N   tau(  28) = (  -0.1011476   0.4058513   0.5963877  )
        29           N   tau(  29) = (  -0.2023225   0.5790047   0.5963877  )
        30           N   tau(  30) = (  -0.3016026   0.7525328   0.5963877  )
        31           N   tau(  31) = (   0.3011370   0.0574194   0.5963877  )
        32           N   tau(  32) = (   0.2014336   0.2291356   0.5963877  )
        33           C   tau(  33) = (   0.1045526   0.4064254   0.5963877  )
        34           N   tau(  34) = (  -0.0044578   0.5809754   0.5963877  )
        35           N   tau(  35) = (  -0.1016828   0.7533171   0.5963877  )
        36           N   tau(  36) = (   0.5012236   0.0580808   0.5963877  )
        37           N   tau(  37) = (   0.4008734   0.2317196   0.5963877  )
        38           N   tau(  38) = (   0.2997060   0.4053656   0.5963877  )
        39           C   tau(  39) = (   0.2012121   0.5738439   0.5963877  )
        40           N   tau(  40) = (   0.0988600   0.7522730   0.5963877  )
        41           N   tau(  41) = (   0.7020622   0.0570634   0.5963877  )
        42           N   tau(  42) = (   0.6016702   0.2310257   0.5963877  )
        43           N   tau(  43) = (   0.5006716   0.4045743   0.5963877  )
        44           N   tau(  44) = (   0.4031901   0.5785866   0.5963877  )
        45           N   tau(  45) = (   0.3013771   0.7524119   0.5963877  )
        46           N   tau(  46) = (   0.9026379   0.0572611   0.5963877  )
        47           N   tau(  47) = (   0.8025220   0.2310640   0.5963877  )
        48           N   tau(  48) = (   0.7012222   0.4044870   0.5963877  )
        49           N   tau(  49) = (   0.6017524   0.5780982   0.5963877  )
        50           N   tau(  50) = (   0.5013128   0.7519774   0.5963877  )

     number of k points=     4  Methfessel-Paxton smearing, width (Ry)=  0.0100
                       cart. coord. in units 2pi/alat
        k(    1) = (   0.0000000   0.0000000   0.0000000), wk =   0.5000000
        k(    2) = (  -0.0003700  -0.5760884   0.0000000), wk =   0.5000000
        k(    3) = (  -0.4987233  -0.2883627   0.0000000), wk =   0.5000000
        k(    4) = (  -0.4990933  -0.8644511   0.0000000), wk =   0.5000000

     Dense  grid:  2631003 G-vectors     FFT dimensions: ( 180, 180, 216)

     Smooth grid:   874973 G-vectors     FFT dimensions: ( 120, 120, 144)

     Estimated max dynamical RAM per process >      65.88 MB

     Estimated total dynamical RAM >       8.24 GB
 ----2D----2D----2D----2D----2D----2D----2D----2D----2D----2D----2D----2D
  The code is running with the 2D cutoff
  Please refer to:
  Sohier, T., Calandra, M., & Mauri, F. (2017), 
  Density functional perturbation theory for gated two-dimensional heterostructu
 res:
  Theoretical developments and application to flexural phonons in graphene.
  Physical Review B, 96(7), 75448. https://doi.org/10.1103/PhysRevB.96.075448
 ----2D----2D----2D----2D----2D----2D----2D----2D----2D----2D----2D----2D

     Initial potential from superposition of free atoms

     starting charge  198.99293, renormalised to  199.00000

     negative rho (up, down):  1.346E-03 0.000E+00
     Starting wfcs are  200 randomized atomic wfcs
     Checking if some PAW data can be deallocated... 

     total cpu time spent up to now is        8.0 secs

     Self-consistent Calculation

     iteration #  1     ecut=    60.00 Ry     beta= 0.70
     CG style diagonalization
     ethr =  1.00E-02,  avg # of iterations =  3.0

     negative rho (up, down):  1.207E-03 0.000E+00

     total cpu time spent up to now is       22.7 secs

     total energy              =    -980.05300381 Ry
     estimated scf accuracy    <       9.86015231 Ry

     iteration #  2     ecut=    60.00 Ry     beta= 0.70
     CG style diagonalization
     ethr =  4.95E-03,  avg # of iterations =  3.9

     negative rho (up, down):  1.322E-03 0.000E+00

     total cpu time spent up to now is       39.7 secs

     total energy              =    -982.05980836 Ry
     estimated scf accuracy    <       6.07881858 Ry

     iteration #  3     ecut=    60.00 Ry     beta= 0.70
     CG style diagonalization
     ethr =  3.05E-03,  avg # of iterations =  3.8

     negative rho (up, down):  1.579E-03 0.000E+00

     total cpu time spent up to now is       56.8 secs

     total energy              =    -983.37866225 Ry
     estimated scf accuracy    <       0.22747860 Ry

     iteration #  4     ecut=    60.00 Ry     beta= 0.70
     CG style diagonalization
     c_bands:  1 eigenvalues not converged
     c_bands:  3 eigenvalues not converged
     c_bands:  4 eigenvalues not converged
     c_bands:  2 eigenvalues not converged
     ethr =  1.14E-04,  avg # of iterations =  5.1

     negative rho (up, down):  1.989E-03 0.000E+00

     total cpu time spent up to now is       83.2 secs

     total energy              =    -983.46077867 Ry
     estimated scf accuracy    <       0.20268917 Ry

     iteration #  5     ecut=    60.00 Ry     beta= 0.70
     CG style diagonalization
     ethr =  1.02E-04,  avg # of iterations =  3.5

     negative rho (up, down):  2.532E-03 0.000E+00

     total cpu time spent up to now is       97.0 secs

     total energy              =    -983.49491455 Ry
     estimated scf accuracy    <       0.01675218 Ry

     iteration #  6     ecut=    60.00 Ry     beta= 0.70
     CG style diagonalization
     c_bands:  3 eigenvalues not converged
     c_bands:  1 eigenvalues not converged
     c_bands:  1 eigenvalues not converged
     c_bands:  1 eigenvalues not converged
     ethr =  8.42E-06,  avg # of iterations =  4.4

     negative rho (up, down):  3.082E-03 0.000E+00

     total cpu time spent up to now is      112.9 secs

     total energy              =    -983.49902883 Ry
     estimated scf accuracy    <       0.00132482 Ry

     iteration #  7     ecut=    60.00 Ry     beta= 0.70
     CG style diagonalization
     c_bands:  2 eigenvalues not converged
     c_bands:  3 eigenvalues not converged
     c_bands:  1 eigenvalues not converged
     ethr =  6.66E-07,  avg # of iterations =  4.8

     negative rho (up, down):  3.185E-03 0.000E+00

     total cpu time spent up to now is      131.0 secs

     total energy              =    -983.49935512 Ry
     estimated scf accuracy    <       0.00128533 Ry

     iteration #  8     ecut=    60.00 Ry     beta= 0.70
     CG style diagonalization
     c_bands:  1 eigenvalues not converged
     c_bands:  1 eigenvalues not converged
     c_bands:  1 eigenvalues not converged
     ethr =  6.46E-07,  avg # of iterations =  3.3

     negative rho (up, down):  3.164E-03 0.000E+00

     total cpu time spent up to now is      142.6 secs

     total energy              =    -983.49939052 Ry
     estimated scf accuracy    <       0.00025371 Ry

     iteration #  9     ecut=    60.00 Ry     beta= 0.70
     CG style diagonalization
     ethr =  1.27E-07,  avg # of iterations =  3.7

     negative rho (up, down):  3.151E-03 0.000E+00

     total cpu time spent up to now is      155.2 secs

     total energy              =    -983.49943422 Ry
     estimated scf accuracy    <       0.00001947 Ry

     iteration # 10     ecut=    60.00 Ry     beta= 0.70
     CG style diagonalization
     ethr =  9.78E-09,  avg # of iterations =  4.2

     negative rho (up, down):  3.154E-03 0.000E+00

     total cpu time spent up to now is      170.8 secs

     total energy              =    -983.49944429 Ry
     estimated scf accuracy    <       0.00000369 Ry

     iteration # 11     ecut=    60.00 Ry     beta= 0.70
     CG style diagonalization
     ethr =  1.85E-09,  avg # of iterations =  3.1

     negative rho (up, down):  3.160E-03 0.000E+00

     total cpu time spent up to now is      181.8 secs

     total energy              =    -983.49944405 Ry
     estimated scf accuracy    <       0.00000136 Ry

     iteration # 12     ecut=    60.00 Ry     beta= 0.70
     CG style diagonalization
     ethr =  6.83E-10,  avg # of iterations =  3.8

     negative rho (up, down):  3.161E-03 0.000E+00

     total cpu time spent up to now is      194.8 secs

     total energy              =    -983.49944431 Ry
     estimated scf accuracy    <       0.00000004 Ry

     iteration # 13     ecut=    60.00 Ry     beta= 0.70
     CG style diagonalization
     ethr =  2.19E-11,  avg # of iterations =  4.3

     negative rho (up, down):  3.160E-03 0.000E+00

     total cpu time spent up to now is      210.9 secs

     total energy              =    -983.49944434 Ry
     estimated scf accuracy    <          9.2E-09 Ry

     iteration # 14     ecut=    60.00 Ry     beta= 0.70
     CG style diagonalization
     ethr =  4.63E-12,  avg # of iterations =  3.4

     negative rho (up, down):  3.161E-03 0.000E+00

     total cpu time spent up to now is      223.0 secs

     total energy              =    -983.49944434 Ry
     estimated scf accuracy    <          1.7E-09 Ry

     iteration # 15     ecut=    60.00 Ry     beta= 0.70
     CG style diagonalization
     ethr =  8.47E-13,  avg # of iterations =  3.5

     negative rho (up, down):  3.160E-03 0.000E+00

     total cpu time spent up to now is      236.0 secs

     total energy              =    -983.49944434 Ry
     estimated scf accuracy    <          3.2E-10 Ry

     iteration # 16     ecut=    60.00 Ry     beta= 0.70
     CG style diagonalization
     ethr =  1.59E-13,  avg # of iterations =  4.0

     negative rho (up, down):  3.160E-03 0.000E+00

     total cpu time spent up to now is      253.3 secs

     total energy              =    -983.49944434 Ry
     estimated scf accuracy    <          2.0E-11 Ry

     iteration # 17     ecut=    60.00 Ry     beta= 0.70
     CG style diagonalization
     ethr =  1.00E-13,  avg # of iterations =  3.0

     negative rho (up, down):  3.160E-03 0.000E+00

     total cpu time spent up to now is      265.9 secs

     total energy              =    -983.49944434 Ry
     estimated scf accuracy    <          2.5E-12 Ry

     iteration # 18     ecut=    60.00 Ry     beta= 0.70
     CG style diagonalization
     ethr =  1.00E-13,  avg # of iterations =  3.0

     negative rho (up, down):  3.160E-03 0.000E+00

     total cpu time spent up to now is      281.2 secs

     End of self-consistent calculation

          k = 0.0000 0.0000 0.0000 (109459 PWs)   bands (ev):

   -23.4827 -23.0721 -22.7419 -22.7275 -22.6933 -22.5105 -22.4469 -21.6760
   -21.3969 -21.3709 -21.3595 -21.2144 -21.2127 -21.0317 -20.9005 -20.8975
   -20.8342 -20.5107 -20.4972 -20.1312 -20.1088 -20.0804 -20.0511 -18.7078
   -16.6656 -14.7367 -14.2701 -14.2536 -14.1960 -14.1516 -14.1145 -14.0053
   -13.9252 -13.8236 -13.8097 -13.6690 -13.5182 -12.4694 -12.3664 -12.3336
   -12.3104 -12.1008 -12.0738 -11.9605 -11.7771 -11.7364 -11.6645 -11.5834
   -11.4267 -11.0198 -10.7099 -10.6368 -10.5927 -10.5078 -10.4417 -10.3551
   -10.2020 -10.0703 -10.0600 -10.0499 -10.0262  -9.9106  -9.8909  -9.8732
    -9.8451  -9.8352  -9.8184  -9.8091  -9.8060  -9.7316  -9.5129  -9.4979
    -9.2553  -9.0005  -8.4688  -8.4404  -8.4031  -8.3429  -8.2296  -8.2175
    -8.2013  -8.1909  -8.0705  -8.0311  -7.9205  -7.6644  -7.6154  -7.5229
    -7.5139  -7.4680  -7.2920  -7.1117  -6.7473  -6.7339  -6.3331  -6.3029
    -6.2588  -6.2546  -5.9855  -4.9553  -1.7377  -1.1030  -1.0810  -1.0805
    -1.0573  -1.0193  -0.9316  -0.3184  -0.1334  -0.0885  -0.0770  -0.0336
    -0.0094   0.0892   0.0970   0.1068   0.1108   0.1499   1.1629   1.1958

          k =-0.0004-0.5761 0.0000 (109392 PWs)   bands (ev):

   -23.3890 -23.2292 -22.9882 -22.7678 -22.4376 -22.1774 -22.0932 -22.0132
   -21.8974 -21.6894 -21.3008 -21.2450 -21.1879 -20.9471 -20.6377 -20.5403
   -20.5180 -20.4998 -20.4795 -20.4272 -20.3571 -20.0784 -20.0425 -18.7169
   -16.6861 -14.8608 -14.5337 -14.3562 -14.3498 -14.2256 -13.8891 -13.6752
   -13.6308 -13.6192 -13.4907 -13.4153 -13.0954 -13.0276 -12.9099 -12.7677
   -12.6468 -12.5622 -11.9257 -11.8971 -11.5697 -11.4966 -11.4619 -11.2909
   -11.1531 -10.9342 -10.8833 -10.7981 -10.7471 -10.7186 -10.5072 -10.4692
   -10.4290 -10.3147 -10.3051 -10.1809 -10.1067 -10.0559  -9.9810  -9.8823
    -9.7467  -9.4703  -9.3919  -9.3187  -9.2948  -9.2522  -9.2308  -9.1992
    -9.1951  -9.0993  -9.0630  -8.9022  -8.7943  -8.7394  -8.3346  -8.2710
    -8.1801  -8.0831  -8.0206  -7.9795  -7.9101  -7.8016  -7.6144  -7.0910
    -7.0307  -6.9630  -6.9462  -6.9184  -6.8762  -6.8634  -6.8179  -6.7856
    -6.5725  -6.2726  -5.9155  -5.0194  -1.6545  -1.0659  -1.0183  -0.9175
    -0.8087  -0.7948  -0.7710  -0.7508  -0.6963  -0.4402  -0.2712  -0.2091
    -0.1633  -0.1285  -0.1223   0.1588   0.1925   0.6721   0.7372   0.7417

          k =-0.4987-0.2884 0.0000 (109392 PWs)   bands (ev):

   -23.3890 -23.2292 -22.9882 -22.7678 -22.4376 -22.1774 -22.0932 -22.0132
   -21.8974 -21.6894 -21.3008 -21.2450 -21.1879 -20.9471 -20.6377 -20.5403
   -20.5180 -20.4998 -20.4795 -20.4272 -20.3571 -20.0784 -20.0425 -18.7169
   -16.6861 -14.8608 -14.5337 -14.3562 -14.3498 -14.2256 -13.8891 -13.6752
   -13.6308 -13.6192 -13.4907 -13.4153 -13.0954 -13.0276 -12.9099 -12.7677
   -12.6468 -12.5622 -11.9257 -11.8971 -11.5697 -11.4966 -11.4619 -11.2909
   -11.1531 -10.9342 -10.8833 -10.7981 -10.7471 -10.7186 -10.5072 -10.4692
   -10.4290 -10.3147 -10.3051 -10.1809 -10.1067 -10.0559  -9.9810  -9.8823
    -9.7467  -9.4703  -9.3919  -9.3187  -9.2948  -9.2522  -9.2308  -9.1992
    -9.1951  -9.0993  -9.0630  -8.9022  -8.7943  -8.7394  -8.3346  -8.2710
    -8.1801  -8.0831  -8.0206  -7.9795  -7.9101  -7.8016  -7.6144  -7.0910
    -7.0307  -6.9630  -6.9462  -6.9184  -6.8762  -6.8634  -6.8179  -6.7856
    -6.5725  -6.2726  -5.9155  -5.0194  -1.6545  -1.0659  -1.0183  -0.9175
    -0.8087  -0.7948  -0.7710  -0.7508  -0.6963  -0.4402  -0.2712  -0.2091
    -0.1633  -0.1285  -0.1223   0.1587   0.1925   0.6720   0.7373   0.7421

          k =-0.4991-0.8645 0.0000 (109368 PWs)   bands (ev):

   -23.4167 -23.1492 -23.0118 -22.8275 -22.4268 -22.1789 -22.0803 -22.0080
   -21.9105 -21.5658 -21.3646 -21.2867 -21.2142 -20.9799 -20.5867 -20.5321
   -20.4893 -20.4847 -20.4738 -20.4393 -20.4148 -20.0976 -19.9946 -18.7296
   -16.6831 -14.8841 -14.4206 -14.3797 -14.3675 -14.2376 -13.8592 -13.7367
   -13.7318 -13.5827 -13.4938 -13.4867 -13.0152 -12.9724 -12.8772 -12.7299
   -12.7198 -12.4445 -12.0669 -11.8863 -11.5874 -11.4999 -11.3930 -11.3596
   -11.0630 -10.9668 -10.8935 -10.8451 -10.8105 -10.6754 -10.4894 -10.4301
   -10.4225 -10.3520 -10.3101 -10.2284 -10.0676 -10.0552  -9.9987  -9.9748
    -9.5380  -9.4646  -9.3802  -9.3250  -9.2572  -9.2384  -9.2223  -9.1766
    -9.1496  -9.1315  -9.0027  -8.9627  -8.9069  -8.6902  -8.6008  -8.2199
    -8.1726  -8.0620  -8.0029  -7.9974  -7.9143  -7.7436  -7.5817  -7.0984
    -7.0269  -6.9610  -6.9191  -6.9079  -6.8804  -6.8367  -6.8329  -6.7944
    -6.4851  -6.3794  -5.9650  -4.9840  -1.6587  -1.0559  -1.0475  -0.9078
    -0.8223  -0.8009  -0.7546  -0.7338  -0.7138  -0.3521  -0.2647  -0.2552
    -0.1565  -0.1507  -0.1406   0.1484   0.2097   0.6348   0.7398   0.7544

     the Fermi energy is    -4.9948 ev

!    total energy              =    -983.49944434 Ry

     total all-electron energy =     -3944.408429 Ry
     estimated scf accuracy    <          9.8E-13 Ry
     smearing contrib. (-TS)   =      -0.00250668 Ry
     internal energy E=F+TS    =    -983.49693766 Ry

     The total energy is F=E-TS. E is the sum of the following terms:
     one-electron contribution =   -6146.50715368 Ry
     hartree contribution      =    3103.98839932 Ry
     xc contribution           =    -219.12194858 Ry
     ewald contribution        =    2605.01957388 Ry
     one-center paw contrib.   =    -326.87580859 Ry

     convergence has been achieved in  18 iterations

     negative rho (up, down):  3.160E-03 0.000E+00

     Forces acting on atoms (cartesian axes, Ry/au):

     atom    1 type  1   force =     0.00001885   -0.00007541    0.00000000
     atom    2 type  1   force =     0.00006958    0.00001664    0.00000000
     atom    3 type  1   force =    -0.00007138    0.00005047    0.00000000
     atom    4 type  1   force =    -0.00004300    0.00002297    0.00000000
     atom    5 type  1   force =     0.00002799   -0.00001614    0.00000000
     atom    6 type  1   force =    -0.00002257   -0.00029120    0.00000000
     atom    7 type  1   force =    -0.00037579   -0.00037943    0.00000000
     atom    8 type  1   force =    -0.00050490   -0.00032917    0.00000000
     atom    9 type  1   force =    -0.00046887    0.00027072    0.00000000
     atom   10 type  1   force =    -0.00004139    0.00002574    0.00000000
     atom   11 type  1   force =     0.00000816    0.00000173    0.00000000
     atom   12 type  1   force =     0.00000961   -0.00000543    0.00000000
     atom   13 type  3   force =     0.00041278   -0.00023824    0.00000000
     atom   14 type  1   force =     0.00003268    0.00060178    0.00000000
     atom   15 type  1   force =    -0.00007943    0.00003660    0.00000000
     atom   16 type  1   force =     0.00002260   -0.00001534    0.00000000
     atom   17 type  1   force =     0.00001713   -0.00000989    0.00000000
     atom   18 type  1   force =     0.00000949   -0.00000563    0.00000000
     atom   19 type  1   force =     0.00014059    0.00051510    0.00000000
     atom   20 type  1   force =     0.00002039   -0.00006857    0.00000000
     atom   21 type  1   force =     0.00003200   -0.00001847    0.00000000
     atom   22 type  1   force =     0.00002459   -0.00001191    0.00000000
     atom   23 type  1   force =     0.00000258   -0.00000792    0.00000000
     atom   24 type  1   force =     0.00024095    0.00016515    0.00000000
     atom   25 type  1   force =     0.00007474    0.00002140    0.00000000
     atom   26 type  2   force =     0.00003823   -0.00000918    0.00000000
     atom   27 type  2   force =     0.00007045    0.00001152    0.00000000
     atom   28 type  2   force =     0.00006452    0.00000854    0.00000000
     atom   29 type  2   force =     0.00006825    0.00000272    0.00000000
     atom   30 type  2   force =     0.00003219   -0.00001858    0.00000000
     atom   31 type  2   force =     0.00001273   -0.00000331    0.00000000
     atom   32 type  2   force =    -0.00005511    0.00001271    0.00000000
     atom   33 type  3   force =    -0.00013048    0.00002114    0.00000000
     atom   34 type  2   force =     0.00005992   -0.00003460    0.00000000
     atom   35 type  2   force =     0.00003177   -0.00006047    0.00000000
     atom   36 type  2   force =     0.00003273   -0.00002531    0.00000000
     atom   37 type  2   force =     0.00002616   -0.00001660    0.00000000
     atom   38 type  2   force =     0.00003704   -0.00002135    0.00000000
     atom   39 type  3   force =    -0.00008352    0.00010246    0.00000000
     atom   40 type  2   force =     0.00002490   -0.00006013    0.00000000
     atom   41 type  2   force =     0.00002986   -0.00002167    0.00000000
     atom   42 type  2   force =     0.00003080   -0.00001778    0.00000000
     atom   43 type  2   force =     0.00002747   -0.00001432    0.00000000
     atom   44 type  2   force =    -0.00003860    0.00004135    0.00000000
     atom   45 type  2   force =     0.00002523   -0.00006675    0.00000000
     atom   46 type  2   force =     0.00002986   -0.00001727    0.00000000
     atom   47 type  2   force =     0.00003368   -0.00001504    0.00000000
     atom   48 type  2   force =     0.00003826   -0.00001568    0.00000000
     atom   49 type  2   force =     0.00000922   -0.00000939    0.00000000
     atom   50 type  2   force =     0.00002704   -0.00002853    0.00000000

     Total force =     0.001458     Total SCF correction =     0.000002


     Computing stress (Cartesian axis) and pressure


     negative rho (up, down):  3.160E-03 0.000E+00
          total   stress  (Ry/bohr**3)                   (kbar)     P=       -0.31
  -0.00000136  -0.00000006   0.00000000           -0.20       -0.01        0.00
  -0.00000006  -0.00000143   0.00000000           -0.01       -0.21        0.00
   0.00000000   0.00000000  -0.00000359            0.00        0.00       -0.53


     BFGS Geometry Optimization
     Energy error            =      0.0E+00 Ry
     Gradient error          =      6.0E-04 Ry/Bohr
     Cell gradient error     =      2.1E-01 kbar

     number of scf cycles    =   1
     number of bfgs steps    =   0

     enthalpy           new  =    -983.4994443426 Ry

     new trust radius        =       0.0008427629 bohr
     new conv_thr            =            1.0E-12 Ry

     new unit-cell volume =  13933.95958 a.u.^3 (  2064.79978 Ang^3 )
     density =      0.49672 g/cm^3

CELL_PARAMETERS (alat= 23.76463845)
   1.002898200  -0.000645535   0.000000000
  -0.502004756   0.868214513   0.000000000
   0.000000000   0.000000000   1.192775420

ATOMIC_POSITIONS (crystal)
B             0.0663058719        0.1328244367        0.5000000000
B             0.0673491465        0.3336192579        0.5000000000
B             0.0660582003        0.5336076504        0.5000000000
B             0.0663817826        0.7335459236        0.5000000000
B             0.0667249395        0.9332750616        0.5000000000
B             0.2663284568        0.1316149318        0.5000000000
B             0.2660762136        0.3295155020        0.5000000000
B             0.2667203302        0.5370170150        0.5000000000
B             0.2649983526        0.7350016475        0.5000000000
B             0.2664540766        0.9336182178        0.5000000000
B             0.4667782271        0.1336852961        0.5000000000
B             0.4660205412        0.3329827375        0.5000000000
C             0.4677493460        0.5322506583        0.5000000000
B             0.4629829856        0.7332796667        0.5000000000
B             0.4663923483        0.9339418009        0.5000000000
B             0.6666873224        0.1332653898        0.5000000000
B             0.6667100215        0.3332899777        0.5000000000
B             0.6670172610        0.5339794574        0.5000000000
B             0.6704844924        0.7339237831        0.5000000000
B             0.6663807427        0.9326508544        0.5000000000
B             0.8667767124        0.1332232880        0.5000000000
B             0.8667346104        0.3333126775        0.5000000000
B             0.8663147036        0.5332217725        0.5000000000
B             0.8683850698        0.7336715440        0.5000000000
B             0.8671755654        0.9336941300        0.5000000000
N             0.1332194670        0.0662822943        0.5000000000
N             0.1328686849        0.2654579286        0.5000000000
N             0.1331782953        0.4675379634        0.5000000000
N             0.1321236898        0.6669661730        0.5000000000
N             0.1331732253        0.8668267755        0.5000000000
N             0.3334837940        0.0663800180        0.5000000000
N             0.3330656102        0.2641544136        0.5000000000
C             0.3386765505        0.4683523636        0.5000000000
N             0.3306185678        0.6693814306        0.5000000000
N             0.3330338268        0.8678763105        0.5000000001
N             0.5334412646        0.0672890909        0.5000000000
N             0.5334891139        0.2672777690        0.4999999999
N             0.5327263996        0.4672736022        0.5000000000
C             0.5316476373        0.6613234496        0.5000000000
N             0.5324620379        0.8668217059        0.5000000000
N             0.7331802319        0.0662656329        0.5000000000
N             0.7333731685        0.2666268312        0.4999999999
N             0.7327222315        0.4665108871        0.5000000000
N             0.7358455844        0.6669343885        0.5000000000
N             0.7345420723        0.8671313169        0.5000000000
N             0.9333579053        0.0666420936        0.5000000000
N             0.9337343668        0.2668197676        0.5000000000
N             0.9327109086        0.4665587356        0.5000000000
N             0.9336199815        0.6665162056        0.5000000000
N             0.9337177047        0.8667805327        0.5000000000



     Writing output data file ./TMP_DIR/hBN.save/
     NEW-OLD atomic charge density approx. for the potential

     negative rho (up, down):  3.161E-03 0.000E+00
     extrapolated charge  198.98612, renormalised to  199.00000

     total cpu time spent up to now is      293.8 secs

     Self-consistent Calculation

     iteration #  1     ecut=    60.00 Ry     beta= 0.70
     CG style diagonalization
     ethr =  1.00E-06,  avg # of iterations =  2.0

     Threshold (ethr) on eigenvalues was too large:
     Diagonalizing with lowered threshold

     CG style diagonalization
     c_bands:  2 eigenvalues not converged
     c_bands:  2 eigenvalues not converged
     ethr =  1.72E-09,  avg # of iterations =  9.4

     negative rho (up, down):  3.165E-03 0.000E+00

     total cpu time spent up to now is      345.4 secs

     total energy              =    -983.49943801 Ry
     estimated scf accuracy    <       0.00000593 Ry

     iteration #  2     ecut=    60.00 Ry     beta= 0.70
     CG style diagonalization
     ethr =  2.98E-09,  avg # of iterations =  4.7

     negative rho (up, down):  3.162E-03 0.000E+00

     total cpu time spent up to now is      362.5 secs

     total energy              =    -983.49944534 Ry
     estimated scf accuracy    <       0.00001654 Ry

     iteration #  3     ecut=    60.00 Ry     beta= 0.70
     CG style diagonalization
     ethr =  2.98E-09,  avg # of iterations =  3.8

     negative rho (up, down):  3.162E-03 0.000E+00

     total cpu time spent up to now is      375.9 secs

     total energy              =    -983.49944625 Ry
     estimated scf accuracy    <       0.00000193 Ry

     iteration #  4     ecut=    60.00 Ry     beta= 0.70
     CG style diagonalization
     ethr =  9.72E-10,  avg # of iterations =  3.0

     negative rho (up, down):  3.162E-03 0.000E+00

     total cpu time spent up to now is      386.3 secs

     total energy              =    -983.49944608 Ry
     estimated scf accuracy    <       0.00000080 Ry

     iteration #  5     ecut=    60.00 Ry     beta= 0.70
     CG style diagonalization
     ethr =  4.04E-10,  avg # of iterations =  3.2

     negative rho (up, down):  3.162E-03 0.000E+00

     total cpu time spent up to now is      397.1 secs

     total energy              =    -983.49944615 Ry
     estimated scf accuracy    <       0.00000011 Ry

     iteration #  6     ecut=    60.00 Ry     beta= 0.70
     CG style diagonalization
     ethr =  5.48E-11,  avg # of iterations =  4.1

     negative rho (up, down):  3.162E-03 0.000E+00

     total cpu time spent up to now is      411.9 secs

     total energy              =    -983.49944618 Ry
     estimated scf accuracy    <          7.2E-09 Ry

     iteration #  7     ecut=    60.00 Ry     beta= 0.70
     CG style diagonalization
     ethr =  3.60E-12,  avg # of iterations =  3.5

     negative rho (up, down):  3.162E-03 0.000E+00

     total cpu time spent up to now is      424.5 secs

     total energy              =    -983.49944619 Ry
     estimated scf accuracy    <          8.9E-10 Ry

     iteration #  8     ecut=    60.00 Ry     beta= 0.70
     CG style diagonalization
     ethr =  4.49E-13,  avg # of iterations =  3.2

     negative rho (up, down):  3.162E-03 0.000E+00

     total cpu time spent up to now is      437.2 secs

     total energy              =    -983.49944619 Ry
     estimated scf accuracy    <          3.6E-10 Ry

     iteration #  9     ecut=    60.00 Ry     beta= 0.70
     CG style diagonalization
     c_bands:  1 eigenvalues not converged
     ethr =  1.80E-13,  avg # of iterations =  3.1

     negative rho (up, down):  3.162E-03 0.000E+00

     total cpu time spent up to now is      448.6 secs

     total energy              =    -983.49944619 Ry
     estimated scf accuracy    <          2.2E-10 Ry

     iteration # 10     ecut=    60.00 Ry     beta= 0.70
     CG style diagonalization
     c_bands:  1 eigenvalues not converged
     ethr =  1.10E-13,  avg # of iterations =  3.1

     negative rho (up, down):  3.162E-03 0.000E+00

     total cpu time spent up to now is      460.7 secs

     total energy              =    -983.49944619 Ry
     estimated scf accuracy    <          6.2E-11 Ry

     iteration # 11     ecut=    60.00 Ry     beta= 0.70
     CG style diagonalization
     ethr =  1.00E-13,  avg # of iterations =  3.0

     negative rho (up, down):  3.162E-03 0.000E+00

     total cpu time spent up to now is      474.6 secs

     total energy              =    -983.49944619 Ry
     estimated scf accuracy    <          7.6E-12 Ry

     iteration # 12     ecut=    60.00 Ry     beta= 0.70
     CG style diagonalization
     ethr =  1.00E-13,  avg # of iterations =  3.0

     negative rho (up, down):  3.162E-03 0.000E+00

     total cpu time spent up to now is      487.2 secs

     End of self-consistent calculation

          k = 0.0000 0.0000 0.0000 (109459 PWs)   bands (ev):

   -23.4834 -23.0732 -22.7425 -22.7284 -22.6942 -22.5113 -22.4470 -21.6764
   -21.3972 -21.3708 -21.3604 -21.2151 -21.2137 -21.0320 -20.9011 -20.8980
   -20.8343 -20.5112 -20.4974 -20.1316 -20.1094 -20.0813 -20.0514 -18.7055
   -16.6632 -14.7368 -14.2709 -14.2545 -14.1964 -14.1522 -14.1149 -14.0060
   -13.9257 -13.8238 -13.8102 -13.6691 -13.5175 -12.4698 -12.3671 -12.3337
   -12.3106 -12.1008 -12.0736 -11.9600 -11.7776 -11.7366 -11.6646 -11.5831
   -11.4266 -11.0203 -10.7103 -10.6369 -10.5931 -10.5081 -10.4417 -10.3555
   -10.2023 -10.0707 -10.0607 -10.0498 -10.0269  -9.9111  -9.8916  -9.8738
    -9.8456  -9.8357  -9.8180  -9.8095  -9.8062  -9.7315  -9.5119  -9.4972
    -9.2540  -9.0006  -8.4692  -8.4407  -8.4032  -8.3436  -8.2296  -8.2172
    -8.2010  -8.1915  -8.0708  -8.0317  -7.9202  -7.6643  -7.6150  -7.5233
    -7.5142  -7.4681  -7.2918  -7.1117  -6.7452  -6.7314  -6.3333  -6.3030
    -6.2590  -6.2552  -5.9843  -4.9534  -1.7364  -1.1030  -1.0811  -1.0804
    -1.0573  -1.0188  -0.9308  -0.3182  -0.1335  -0.0877  -0.0770  -0.0325
    -0.0090   0.0892   0.0964   0.1062   0.1107   0.1500   0.1935   1.1964

          k =-0.0004-0.5761 0.0000 (109392 PWs)   bands (ev):

   -23.3897 -23.2302 -22.9891 -22.7684 -22.4386 -22.1776 -22.0939 -22.0140
   -21.8982 -21.6888 -21.3015 -21.2459 -21.1884 -20.9470 -20.6378 -20.5410
   -20.5187 -20.5004 -20.4802 -20.4280 -20.3568 -20.0793 -20.0428 -18.7145
   -16.6838 -14.8613 -14.5340 -14.3570 -14.3503 -14.2259 -13.8899 -13.6757
   -13.6313 -13.6197 -13.4911 -13.4151 -13.0958 -13.0281 -12.9100 -12.7678
   -12.6459 -12.5626 -11.9255 -11.8975 -11.5700 -11.4971 -11.4623 -11.2907
   -11.1532 -10.9341 -10.8832 -10.7986 -10.7476 -10.7182 -10.5074 -10.4690
   -10.4294 -10.3152 -10.3056 -10.1811 -10.1071 -10.0557  -9.9817  -9.8818
    -9.7470  -9.4709  -9.3920  -9.3188  -9.2954  -9.2523  -9.2314  -9.1996
    -9.1955  -9.0991  -9.0624  -8.9027  -8.7939  -8.7391  -8.3347  -8.2709
    -8.1806  -8.0834  -8.0213  -7.9797  -7.9104  -7.8015  -7.6147  -7.0911
    -7.0276  -6.9634  -6.9463  -6.9188  -6.8766  -6.8606  -6.8181  -6.7855
    -6.5722  -6.2728  -5.9148  -5.0175  -1.6532  -1.0658  -1.0180  -0.9173
    -0.8089  -0.7947  -0.7709  -0.7507  -0.6953  -0.4398  -0.2711  -0.2082
    -0.1633  -0.1283  -0.1222   0.1586   0.1925   0.6722   0.7373   0.7417

          k =-0.4987-0.2884 0.0000 (109392 PWs)   bands (ev):

   -23.3897 -23.2302 -22.9891 -22.7684 -22.4386 -22.1776 -22.0939 -22.0140
   -21.8982 -21.6888 -21.3015 -21.2459 -21.1884 -20.9470 -20.6378 -20.5410
   -20.5187 -20.5004 -20.4802 -20.4280 -20.3568 -20.0793 -20.0428 -18.7145
   -16.6838 -14.8613 -14.5340 -14.3570 -14.3503 -14.2259 -13.8899 -13.6757
   -13.6313 -13.6197 -13.4911 -13.4151 -13.0958 -13.0281 -12.9100 -12.7678
   -12.6459 -12.5626 -11.9255 -11.8975 -11.5700 -11.4971 -11.4623 -11.2907
   -11.1532 -10.9341 -10.8832 -10.7986 -10.7476 -10.7182 -10.5074 -10.4690
   -10.4294 -10.3152 -10.3056 -10.1811 -10.1071 -10.0557  -9.9817  -9.8818
    -9.7470  -9.4709  -9.3920  -9.3188  -9.2954  -9.2523  -9.2314  -9.1996
    -9.1955  -9.0991  -9.0624  -8.9027  -8.7939  -8.7391  -8.3347  -8.2709
    -8.1806  -8.0834  -8.0213  -7.9797  -7.9104  -7.8015  -7.6147  -7.0911
    -7.0276  -6.9634  -6.9463  -6.9188  -6.8766  -6.8606  -6.8181  -6.7855
    -6.5722  -6.2728  -5.9148  -5.0175  -1.6532  -1.0658  -1.0180  -0.9173
    -0.8089  -0.7947  -0.7709  -0.7507  -0.6953  -0.4398  -0.2711  -0.2082
    -0.1633  -0.1283  -0.1222   0.1586   0.1925   0.6720   0.7373   0.7419

          k =-0.4991-0.8645 0.0000 (109368 PWs)   bands (ev):

   -23.4174 -23.1499 -23.0129 -22.8282 -22.4273 -22.1794 -22.0807 -22.0091
   -21.9112 -21.5656 -21.3651 -21.2874 -21.2146 -20.9804 -20.5862 -20.5328
   -20.4901 -20.4852 -20.4738 -20.4401 -20.4157 -20.0984 -19.9948 -18.7273
   -16.6808 -14.8845 -14.4209 -14.3803 -14.3682 -14.2379 -13.8598 -13.7373
   -13.7323 -13.5833 -13.4934 -13.4871 -13.0158 -12.9729 -12.8775 -12.7296
   -12.7197 -12.4445 -12.0667 -11.8865 -11.5876 -11.5003 -11.3934 -11.3598
   -11.0629 -10.9666 -10.8931 -10.8457 -10.8105 -10.6759 -10.4895 -10.4304
   -10.4222 -10.3524 -10.3104 -10.2290 -10.0676 -10.0555  -9.9988  -9.9748
    -9.5382  -9.4650  -9.3804  -9.3253  -9.2577  -9.2386  -9.2224  -9.1774
    -9.1501  -9.1320  -9.0025  -8.9618  -8.9073  -8.6901  -8.6005  -8.2203
    -8.1729  -8.0624  -8.0029  -7.9969  -7.9142  -7.7438  -7.5823  -7.0956
    -7.0263  -6.9612  -6.9195  -6.9079  -6.8807  -6.8337  -6.8334  -6.7950
    -6.4845  -6.3795  -5.9643  -4.9822  -1.6575  -1.0556  -1.0473  -0.9076
    -0.8224  -0.8008  -0.7547  -0.7337  -0.7132  -0.3513  -0.2644  -0.2548
    -0.1555  -0.1507  -0.1405   0.1483   0.2097   0.6353   0.7397   0.7546

     the Fermi energy is    -4.9929 ev

!    total energy              =    -983.49944619 Ry

     total all-electron energy =     -3944.408431 Ry
     estimated scf accuracy    <          4.7E-13 Ry
     smearing contrib. (-TS)   =      -0.00250692 Ry
     internal energy E=F+TS    =    -983.49693927 Ry

     The total energy is F=E-TS. E is the sum of the following terms:
     one-electron contribution =   -6146.93634993 Ry
     hartree contribution      =    3104.20430769 Ry
     xc contribution           =    -219.12560760 Ry
     ewald contribution        =    2605.23653960 Ry
     one-center paw contrib.   =    -326.87582903 Ry

     convergence has been achieved in  12 iterations

     negative rho (up, down):  3.162E-03 0.000E+00

     Forces acting on atoms (cartesian axes, Ry/au):

     atom    1 type  1   force =     0.00002530   -0.00001787    0.00000000
     atom    2 type  1   force =     0.00002144   -0.00000494    0.00000000
     atom    3 type  1   force =     0.00002953    0.00000002    0.00000000
     atom    4 type  1   force =     0.00002155   -0.00004383    0.00000000
     atom    5 type  1   force =     0.00001904   -0.00001101    0.00000000
     atom    6 type  1   force =     0.00003235    0.00005306    0.00000000
     atom    7 type  1   force =     0.00001989    0.00006706    0.00000000
     atom    8 type  1   force =     0.00004732    0.00012114    0.00000000
     atom    9 type  1   force =     0.00017292   -0.00009983    0.00000000
     atom   10 type  1   force =     0.00004873    0.00000325    0.00000000
     atom   11 type  1   force =     0.00002242    0.00001365    0.00000000
     atom   12 type  1   force =    -0.00005667   -0.00005546    0.00000000
     atom   13 type  3   force =    -0.00015278    0.00008815    0.00000000
     atom   14 type  1   force =    -0.00008129   -0.00010148    0.00000000
     atom   15 type  1   force =     0.00001480   -0.00002562    0.00000000
     atom   16 type  1   force =     0.00004242   -0.00001941    0.00000000
     atom   17 type  1   force =     0.00002411   -0.00001389    0.00000000
     atom   18 type  1   force =     0.00001972    0.00007684    0.00000000
     atom   19 type  1   force =    -0.00004803   -0.00005067    0.00000000
     atom   20 type  1   force =     0.00001501   -0.00001611    0.00000000
     atom   21 type  1   force =     0.00000971   -0.00000562    0.00000000
     atom   22 type  1   force =     0.00003801   -0.00002703    0.00000000
     atom   23 type  1   force =    -0.00000062   -0.00002623    0.00000000
     atom   24 type  1   force =    -0.00002984   -0.00005457    0.00000000
     atom   25 type  1   force =     0.00002808   -0.00001303    0.00000000
     atom   26 type  2   force =    -0.00003949   -0.00010845    0.00000000
     atom   27 type  2   force =    -0.00020432   -0.00021011    0.00000000
     atom   28 type  2   force =    -0.00029337   -0.00015025    0.00000000
     atom   29 type  2   force =    -0.00021095    0.00001959    0.00000000
     atom   30 type  2   force =    -0.00000729    0.00000419    0.00000000
     atom   31 type  2   force =     0.00003433   -0.00006848    0.00000000
     atom   32 type  2   force =    -0.00005590   -0.00018551    0.00000000
     atom   33 type  3   force =     0.00000150   -0.00017218    0.00000000
     atom   34 type  2   force =    -0.00025627    0.00014797    0.00000000
     atom   35 type  2   force =    -0.00012243    0.00017289    0.00000000
     atom   36 type  2   force =    -0.00000823   -0.00000630    0.00000000
     atom   37 type  2   force =     0.00001806   -0.00002070    0.00000000
     atom   38 type  2   force =     0.00018454   -0.00010658    0.00000000
     atom   39 type  3   force =     0.00014983    0.00008479    0.00000000
     atom   40 type  2   force =    -0.00001660    0.00032916    0.00000000
     atom   41 type  2   force =     0.00003155   -0.00004501    0.00000000
     atom   42 type  2   force =     0.00002415   -0.00001394    0.00000000
     atom   43 type  2   force =     0.00002695   -0.00000533    0.00000000
     atom   44 type  2   force =     0.00013273    0.00014119    0.00000000
     atom   45 type  2   force =     0.00007980    0.00028197    0.00000000
     atom   46 type  2   force =     0.00004144   -0.00002388    0.00000000
     atom   47 type  2   force =     0.00005476   -0.00000481    0.00000000
     atom   48 type  2   force =     0.00000138    0.00001025    0.00000000
     atom   49 type  2   force =     0.00007650    0.00000453    0.00000000
     atom   50 type  2   force =     0.00007422    0.00008844    0.00000000

     Total force =     0.000973     Total SCF correction =     0.000001


     Computing stress (Cartesian axis) and pressure


     negative rho (up, down):  3.162E-03 0.000E+00
          total   stress  (Ry/bohr**3)                   (kbar)     P=       -0.26
  -0.00000084  -0.00000001   0.00000000           -0.12       -0.00        0.00
  -0.00000001  -0.00000086   0.00000000           -0.00       -0.13        0.00
   0.00000000   0.00000000  -0.00000359            0.00        0.00       -0.53

     Energy error            =      1.8E-06 Ry
     Gradient error          =      3.3E-04 Ry/Bohr
     Cell gradient error     =      1.3E-01 kbar

     number of scf cycles    =   2
     number of bfgs steps    =   1

     enthalpy           old  =    -983.4994443426 Ry
     enthalpy           new  =    -983.4994461855 Ry

     CASE: enthalpy          _new < enthalpy          _old

     new trust radius        =       0.0009673957 bohr
     new conv_thr            =            1.0E-14 Ry

     new unit-cell volume =  13932.83408 a.u.^3 (  2064.63300 Ang^3 )
     density =      0.49676 g/cm^3

CELL_PARAMETERS (alat= 23.76463845)
   1.002858275  -0.000646510   0.000000000
  -0.501985639   0.868179449   0.000000000
   0.000000000   0.000000000   1.192775420

ATOMIC_POSITIONS (crystal)
B             0.0663060504        0.1328216976        0.5000000000
B             0.0673516295        0.3336193928        0.5000000000
B             0.0660586889        0.5336088508        0.5000000000
B             0.0663809968        0.7335441441        0.5000000000
B             0.0667259053        0.9332740946        0.5000000000
B             0.2663274229        0.1316108264        0.5000000000
B             0.2660666620        0.3295100369        0.5000000000
B             0.2667114157        0.5370156121        0.5000000000
B             0.2649972169        0.7350027841        0.5000000000
B             0.2664558557        0.9336190027        0.5000000000
B             0.4667798077        0.1336860622        0.5000000000
B             0.4660165988        0.3329796646        0.5000000000
C             0.4677503285        0.5322496736        0.5000000000
B             0.4629843887        0.7332885830        0.5000000000
B             0.4663911490        0.9339413109        0.5000000000
B             0.6666890377        0.1332639970        0.5000000000
B             0.6667109944        0.3332890065        0.5000000000
B             0.6670203358        0.5339834010        0.5000000000
B             0.6704899619        0.7339333382        0.5000000000
B             0.6663806082        0.9326483710        0.5000000000
B             0.8667774477        0.1332225518        0.5000000000
B             0.8667360026        0.3333109622        0.5000000000
B             0.8663139373        0.5332201926        0.5000000000
B             0.8683891724        0.7336725764        0.5000000000
B             0.8671783015        0.9336939493        0.5000000000
N             0.1332154510        0.0662763218        0.5000000000
N             0.1328553076        0.2654470495        0.5000000000
N             0.1331622603        0.4675301862        0.5000000000
N             0.1321159582        0.6669672705        0.5000000000
N             0.1331734431        0.8668265564        0.5000000000
N             0.3334837750        0.0663763077        0.5000000000
N             0.3330571335        0.2641448710        0.5000000000
C             0.3386696138        0.4683437292        0.5000000000
N             0.3306115486        0.6693884507        0.5000000000
N             0.3330327295        0.8678840419        0.5000000001
N             0.5334410917        0.0672881553        0.5000000000
N             0.5334897343        0.2672762771        0.4999999999
N             0.5327325532        0.4672674473        0.5000000000
C             0.5316562709        0.6613303871        0.5000000000
N             0.5324698134        0.8668377396        0.5000000000
N             0.7331808424        0.0662627317        0.5000000000
N             0.7333743297        0.2666256704        0.4999999999
N             0.7327237225        0.4665102655        0.5000000000
N             0.7358551274        0.6669428655        0.5000000000
N             0.7345529501        0.8671446929        0.5000000000
N             0.9333595833        0.0666404181        0.5000000000
N             0.9337372683        0.2668191576        0.5000000000
N             0.9327118450        0.4665589076        0.5000000000
N             0.9336236932        0.6665162256        0.5000000000
N             0.9337236789        0.8667845493        0.5000000000



     Writing output data file ./TMP_DIR/hBN.save/
     NEW-OLD atomic charge density approx. for the potential

     negative rho (up, down):  3.163E-03 0.000E+00
     extrapolated charge  198.98393, renormalised to  199.00000

     total cpu time spent up to now is      499.8 secs

     Self-consistent Calculation

     iteration #  1     ecut=    60.00 Ry     beta= 0.70
     CG style diagonalization
     ethr =  1.00E-06,  avg # of iterations =  2.0

     Threshold (ethr) on eigenvalues was too large:
     Diagonalizing with lowered threshold

     CG style diagonalization
     c_bands:  1 eigenvalues not converged
     ethr =  2.07E-09,  avg # of iterations =  4.9

     negative rho (up, down):  3.167E-03 0.000E+00

     total cpu time spent up to now is      532.9 secs

     total energy              =    -983.49943562 Ry
     estimated scf accuracy    <       0.00000807 Ry

     iteration #  2     ecut=    60.00 Ry     beta= 0.70
     CG style diagonalization
     ethr =  4.05E-09,  avg # of iterations =  4.7

     negative rho (up, down):  3.164E-03 0.000E+00

     total cpu time spent up to now is      551.0 secs

     total energy              =    -983.49944573 Ry
     estimated scf accuracy    <       0.00002524 Ry

     iteration #  3     ecut=    60.00 Ry     beta= 0.70
     CG style diagonalization
     ethr =  4.05E-09,  avg # of iterations =  3.8

     negative rho (up, down):  3.163E-03 0.000E+00

     total cpu time spent up to now is      564.8 secs

     total energy              =    -983.49944744 Ry
     estimated scf accuracy    <       0.00000289 Ry

     iteration #  4     ecut=    60.00 Ry     beta= 0.70
     CG style diagonalization
     ethr =  1.45E-09,  avg # of iterations =  3.0

     negative rho (up, down):  3.163E-03 0.000E+00

     total cpu time spent up to now is      574.8 secs

     total energy              =    -983.49944704 Ry
     estimated scf accuracy    <       0.00000166 Ry

     iteration #  5     ecut=    60.00 Ry     beta= 0.70
     CG style diagonalization
     ethr =  8.36E-10,  avg # of iterations =  3.1

     negative rho (up, down):  3.163E-03 0.000E+00

     total cpu time spent up to now is      585.6 secs

     total energy              =    -983.49944707 Ry
     estimated scf accuracy    <       0.00000035 Ry

     iteration #  6     ecut=    60.00 Ry     beta= 0.70
     CG style diagonalization
     ethr =  1.75E-10,  avg # of iterations =  3.5

     negative rho (up, down):  3.163E-03 0.000E+00

     total cpu time spent up to now is      598.3 secs

     total energy              =    -983.49944711 Ry
     estimated scf accuracy    <       0.00000004 Ry

     iteration #  7     ecut=    60.00 Ry     beta= 0.70
     CG style diagonalization
     ethr =  2.19E-11,  avg # of iterations =  3.6

     negative rho (up, down):  3.163E-03 0.000E+00

     total cpu time spent up to now is      610.5 secs

     total energy              =    -983.49944712 Ry
     estimated scf accuracy    <          4.1E-09 Ry

     iteration #  8     ecut=    60.00 Ry     beta= 0.70
     CG style diagonalization
     ethr =  2.08E-12,  avg # of iterations =  4.1

     negative rho (up, down):  3.163E-03 0.000E+00

     total cpu time spent up to now is      625.3 secs

     total energy              =    -983.49944712 Ry
     estimated scf accuracy    <          6.0E-10 Ry

     iteration #  9     ecut=    60.00 Ry     beta= 0.70
     CG style diagonalization
     ethr =  3.02E-13,  avg # of iterations =  3.2

     negative rho (up, down):  3.163E-03 0.000E+00

     total cpu time spent up to now is      637.1 secs

     total energy              =    -983.49944712 Ry
     estimated scf accuracy    <          3.2E-10 Ry

     iteration # 10     ecut=    60.00 Ry     beta= 0.70
     CG style diagonalization
     ethr =  1.59E-13,  avg # of iterations =  3.1

     negative rho (up, down):  3.163E-03 0.000E+00

     total cpu time spent up to now is      649.1 secs

     total energy              =    -983.49944712 Ry
     estimated scf accuracy    <          1.2E-10 Ry

     iteration # 11     ecut=    60.00 Ry     beta= 0.70
     CG style diagonalization
     ethr =  1.00E-13,  avg # of iterations =  3.2

     negative rho (up, down):  3.163E-03 0.000E+00

     total cpu time spent up to now is      659.7 secs

     total energy              =    -983.49944712 Ry
     estimated scf accuracy    <          1.7E-11 Ry

     iteration # 12     ecut=    60.00 Ry     beta= 0.70
     CG style diagonalization
     ethr =  1.00E-13,  avg # of iterations =  3.0

     negative rho (up, down):  3.163E-03 0.000E+00

     total cpu time spent up to now is      671.4 secs

     total energy              =    -983.49944712 Ry
     estimated scf accuracy    <          5.7E-13 Ry

     iteration # 13     ecut=    60.00 Ry     beta= 0.70
     CG style diagonalization
     ethr =  1.00E-13,  avg # of iterations =  3.0

     negative rho (up, down):  3.163E-03 0.000E+00

     total cpu time spent up to now is      685.3 secs

     total energy              =    -983.49944712 Ry
     estimated scf accuracy    <          2.6E-13 Ry

     iteration # 14     ecut=    60.00 Ry     beta= 0.70
     CG style diagonalization
     ethr =  1.00E-13,  avg # of iterations =  3.0

     negative rho (up, down):  3.163E-03 0.000E+00

     total cpu time spent up to now is      699.1 secs

     total energy              =    -983.49944712 Ry
     estimated scf accuracy    <          3.2E-13 Ry

     iteration # 15     ecut=    60.00 Ry     beta= 0.70
     CG style diagonalization
     ethr =  1.00E-13,  avg # of iterations =  3.0

     negative rho (up, down):  3.163E-03 0.000E+00

     total cpu time spent up to now is      711.8 secs

     total energy              =    -983.49944712 Ry
     estimated scf accuracy    <          5.6E-14 Ry

     iteration # 16     ecut=    60.00 Ry     beta= 0.70
     CG style diagonalization
     ethr =  1.00E-13,  avg # of iterations =  3.0

     negative rho (up, down):  3.163E-03 0.000E+00

     total cpu time spent up to now is      722.4 secs

     End of self-consistent calculation

          k = 0.0000 0.0000 0.0000 (109459 PWs)   bands (ev):

   -23.4839 -23.0736 -22.7429 -22.7287 -22.6948 -22.5121 -22.4475 -21.6767
   -21.3977 -21.3711 -21.3609 -21.2154 -21.2139 -21.0321 -20.9012 -20.8984
   -20.8346 -20.5115 -20.4976 -20.1314 -20.1094 -20.0815 -20.0516 -18.7057
   -16.6637 -14.7371 -14.2711 -14.2547 -14.1969 -14.1524 -14.1154 -14.0064
   -13.9258 -13.8240 -13.8102 -13.6693 -13.5177 -12.4698 -12.3673 -12.3336
   -12.3110 -12.1009 -12.0738 -11.9605 -11.7776 -11.7366 -11.6645 -11.5830
   -11.4267 -11.0208 -10.7099 -10.6368 -10.5934 -10.5083 -10.4417 -10.3553
   -10.2027 -10.0710 -10.0610 -10.0495 -10.0273  -9.9109  -9.8912  -9.8744
    -9.8454  -9.8356  -9.8183  -9.8097  -9.8064  -9.7315  -9.5118  -9.4971
    -9.2543  -9.0007  -8.4689  -8.4408  -8.4029  -8.3430  -8.2299  -8.2173
    -8.2011  -8.1918  -8.0708  -8.0317  -7.9199  -7.6643  -7.6145  -7.5232
    -7.5142  -7.4680  -7.2920  -7.1118  -6.7454  -6.7317  -6.3329  -6.3028
    -6.2589  -6.2551  -5.9845  -4.9537  -1.7366  -1.1030  -1.0805  -1.0798
    -1.0568  -1.0181  -0.9305  -0.3178  -0.1332  -0.0875  -0.0762  -0.0322
    -0.0084   0.0901   0.0966   0.1063   0.1109   0.1501   0.1920   0.2683

          k =-0.0004-0.5761 0.0000 (109392 PWs)   bands (ev):

   -23.3900 -23.2307 -22.9896 -22.7690 -22.4390 -22.1781 -22.0943 -22.0144
   -21.8987 -21.6892 -21.3018 -21.2463 -21.1888 -20.9473 -20.6379 -20.5410
   -20.5188 -20.5005 -20.4802 -20.4284 -20.3572 -20.0795 -20.0428 -18.7148
   -16.6842 -14.8616 -14.5342 -14.3571 -14.3506 -14.2261 -13.8902 -13.6760
   -13.6318 -13.6199 -13.4912 -13.4154 -13.0958 -13.0281 -12.9102 -12.7680
   -12.6462 -12.5627 -11.9254 -11.8975 -11.5700 -11.4972 -11.4623 -11.2908
   -11.1533 -10.9343 -10.8831 -10.7989 -10.7481 -10.7182 -10.5072 -10.4691
   -10.4293 -10.3156 -10.3056 -10.1815 -10.1070 -10.0558  -9.9815  -9.8818
    -9.7473  -9.4712  -9.3920  -9.3191  -9.2951  -9.2522  -9.2316  -9.1998
    -9.1956  -9.0990  -9.0623  -8.9030  -8.7938  -8.7393  -8.3343  -8.2708
    -8.1801  -8.0835  -8.0214  -7.9798  -7.9098  -7.8015  -7.6143  -7.0909
    -7.0281  -6.9631  -6.9464  -6.9186  -6.8764  -6.8610  -6.8181  -6.7856
    -6.5723  -6.2726  -5.9149  -5.0178  -1.6534  -1.0653  -1.0174  -0.9168
    -0.8087  -0.7941  -0.7703  -0.7507  -0.6949  -0.4393  -0.2704  -0.2078
    -0.1632  -0.1275  -0.1221   0.1587   0.1926   0.6727   0.7377   0.7418

          k =-0.4988-0.2884 0.0000 (109392 PWs)   bands (ev):

   -23.3900 -23.2307 -22.9896 -22.7690 -22.4390 -22.1781 -22.0943 -22.0144
   -21.8987 -21.6892 -21.3018 -21.2463 -21.1888 -20.9473 -20.6379 -20.5410
   -20.5188 -20.5005 -20.4802 -20.4284 -20.3572 -20.0795 -20.0428 -18.7148
   -16.6842 -14.8616 -14.5342 -14.3571 -14.3506 -14.2261 -13.8902 -13.6760
   -13.6318 -13.6199 -13.4912 -13.4154 -13.0958 -13.0281 -12.9102 -12.7680
   -12.6462 -12.5627 -11.9254 -11.8975 -11.5700 -11.4972 -11.4623 -11.2908
   -11.1533 -10.9343 -10.8831 -10.7989 -10.7481 -10.7182 -10.5072 -10.4691
   -10.4293 -10.3156 -10.3056 -10.1815 -10.1070 -10.0558  -9.9815  -9.8818
    -9.7473  -9.4712  -9.3920  -9.3191  -9.2951  -9.2522  -9.2316  -9.1998
    -9.1956  -9.0990  -9.0623  -8.9030  -8.7938  -8.7393  -8.3343  -8.2708
    -8.1801  -8.0835  -8.0214  -7.9798  -7.9098  -7.8015  -7.6143  -7.0909
    -7.0281  -6.9631  -6.9464  -6.9186  -6.8764  -6.8610  -6.8181  -6.7856
    -6.5723  -6.2726  -5.9149  -5.0178  -1.6534  -1.0653  -1.0174  -0.9168
    -0.8087  -0.7941  -0.7703  -0.7507  -0.6949  -0.4393  -0.2704  -0.2077
    -0.1632  -0.1275  -0.1221   0.1587   0.1926   0.6726   0.7376   0.7418

          k =-0.4991-0.8645 0.0000 (109368 PWs)   bands (ev):

   -23.4178 -23.1504 -23.0133 -22.8288 -22.4277 -22.1799 -22.0810 -22.0097
   -21.9116 -21.5659 -21.3655 -21.2876 -21.2149 -20.9806 -20.5864 -20.5328
   -20.4900 -20.4855 -20.4740 -20.4406 -20.4160 -20.0984 -19.9949 -18.7275
   -16.6813 -14.8849 -14.4212 -14.3805 -14.3683 -14.2382 -13.8599 -13.7378
   -13.7324 -13.5834 -13.4937 -13.4877 -13.0158 -12.9729 -12.8775 -12.7299
   -12.7202 -12.4445 -12.0667 -11.8864 -11.5876 -11.5004 -11.3934 -11.3599
   -11.0629 -10.9665 -10.8932 -10.8461 -10.8104 -10.6763 -10.4895 -10.4304
   -10.4222 -10.3525 -10.3107 -10.2294 -10.0673 -10.0556  -9.9991  -9.9747
    -9.5384  -9.4652  -9.3803  -9.3257  -9.2575  -9.2384  -9.2225  -9.1778
    -9.1500  -9.1317  -9.0024  -8.9618  -8.9076  -8.6902  -8.6006  -8.2198
    -8.1730  -8.0625  -8.0031  -7.9967  -7.9138  -7.7439  -7.5817  -7.0959
    -7.0263  -6.9611  -6.9196  -6.9078  -6.8806  -6.8342  -6.8334  -6.7949
    -6.4846  -6.3793  -5.9643  -4.9825  -1.6577  -1.0552  -1.0467  -0.9069
    -0.8223  -0.8002  -0.7540  -0.7337  -0.7130  -0.3508  -0.2638  -0.2540
    -0.1551  -0.1506  -0.1404   0.1484   0.2098   0.6359   0.7398   0.7553

     the Fermi energy is    -4.9932 ev

!    total energy              =    -983.49944712 Ry

     total all-electron energy =     -3944.408432 Ry
     estimated scf accuracy    <          1.4E-15 Ry
     smearing contrib. (-TS)   =      -0.00250670 Ry
     internal energy E=F+TS    =    -983.49694042 Ry

     The total energy is F=E-TS. E is the sum of the following terms:
     one-electron contribution =   -6147.43330146 Ry
     hartree contribution      =    3104.45449914 Ry
     xc contribution           =    -219.12981083 Ry
     ewald contribution        =    2605.48755269 Ry
     one-center paw contrib.   =    -326.87587997 Ry

     convergence has been achieved in  16 iterations

     negative rho (up, down):  3.163E-03 0.000E+00

     Forces acting on atoms (cartesian axes, Ry/au):

     atom    1 type  1   force =    -0.00001687   -0.00011789    0.00000000
     atom    2 type  1   force =    -0.00010316   -0.00011496    0.00000000
     atom    3 type  1   force =    -0.00010549   -0.00000692    0.00000000
     atom    4 type  1   force =    -0.00002959    0.00004423    0.00000000
     atom    5 type  1   force =     0.00004367   -0.00002521    0.00000000
     atom    6 type  1   force =     0.00000452   -0.00002603    0.00000000
     atom    7 type  1   force =     0.00006311   -0.00002159    0.00000000
     atom    8 type  1   force =     0.00007953    0.00011533    0.00000000
     atom    9 type  1   force =    -0.00002833    0.00001634    0.00000000
     atom   10 type  1   force =    -0.00005311    0.00000353    0.00000000
     atom   11 type  1   force =     0.00002129   -0.00003211    0.00000000
     atom   12 type  1   force =    -0.00000548   -0.00012124    0.00000000
     atom   13 type  3   force =    -0.00013257    0.00007651    0.00000000
     atom   14 type  1   force =    -0.00006016   -0.00012651    0.00000000
     atom   15 type  1   force =    -0.00004675    0.00009482    0.00000000
     atom   16 type  1   force =     0.00002295   -0.00003409    0.00000000
     atom   17 type  1   force =     0.00002365   -0.00001367    0.00000000
     atom   18 type  1   force =     0.00010224    0.00006536    0.00000000
     atom   19 type  1   force =     0.00005027   -0.00004386    0.00000000
     atom   20 type  1   force =     0.00004795    0.00014682    0.00000000
     atom   21 type  1   force =     0.00003957   -0.00002283    0.00000000
     atom   22 type  1   force =     0.00004101   -0.00000284    0.00000000
     atom   23 type  1   force =     0.00003847   -0.00000239    0.00000000
     atom   24 type  1   force =     0.00002481    0.00000911    0.00000000
     atom   25 type  1   force =     0.00009368    0.00007357    0.00000000
     atom   26 type  2   force =     0.00002029   -0.00000657    0.00000000
     atom   27 type  2   force =    -0.00004489   -0.00002114    0.00000000
     atom   28 type  2   force =    -0.00002952    0.00000817    0.00000000
     atom   29 type  2   force =     0.00002020   -0.00001067    0.00000000
     atom   30 type  2   force =     0.00001430   -0.00000825    0.00000000
     atom   31 type  2   force =     0.00001843    0.00002645    0.00000000
     atom   32 type  2   force =    -0.00004550   -0.00002322    0.00000000
     atom   33 type  3   force =    -0.00000404    0.00000985    0.00000000
     atom   34 type  2   force =    -0.00000989    0.00000572    0.00000000
     atom   35 type  2   force =     0.00001935   -0.00001215    0.00000000
     atom   36 type  2   force =     0.00000445    0.00002910    0.00000000
     atom   37 type  2   force =    -0.00002567    0.00000140    0.00000000
     atom   38 type  2   force =    -0.00003852    0.00002224    0.00000000
     atom   39 type  3   force =    -0.00001054   -0.00000144    0.00000000
     atom   40 type  2   force =    -0.00002182    0.00002147    0.00000000
     atom   41 type  2   force =     0.00002088    0.00000482    0.00000000
     atom   42 type  2   force =     0.00002398   -0.00001385    0.00000000
     atom   43 type  2   force =    -0.00001403    0.00002155    0.00000000
     atom   44 type  2   force =    -0.00000264    0.00005104    0.00000000
     atom   45 type  2   force =    -0.00000413    0.00004944    0.00000000
     atom   46 type  2   force =     0.00000877   -0.00000509    0.00000000
     atom   47 type  2   force =     0.00000627   -0.00002049    0.00000000
     atom   48 type  2   force =    -0.00002301   -0.00001838    0.00000000
     atom   49 type  2   force =    -0.00001373   -0.00002920    0.00000000
     atom   50 type  2   force =     0.00001581   -0.00001430    0.00000000

     Total force =     0.000493     Total SCF correction =     0.000000


     Computing stress (Cartesian axis) and pressure


     negative rho (up, down):  3.163E-03 0.000E+00
          total   stress  (Ry/bohr**3)                   (kbar)     P=       -0.20
  -0.00000020  -0.00000001   0.00000000           -0.03       -0.00        0.00
  -0.00000001  -0.00000022   0.00000000           -0.00       -0.03        0.00
   0.00000000   0.00000000  -0.00000359            0.00        0.00       -0.53

     Energy error            =      9.3E-07 Ry
     Gradient error          =      1.5E-04 Ry/Bohr
     Cell gradient error     =      3.2E-02 kbar

     number of scf cycles    =   3
     number of bfgs steps    =   2

     enthalpy           old  =    -983.4994461855 Ry
     enthalpy           new  =    -983.4994471203 Ry

     CASE: enthalpy          _new < enthalpy          _old

     new trust radius        =       0.0003989946 bohr
     new conv_thr            =            1.0E-14 Ry

     new unit-cell volume =  13932.37432 a.u.^3 (  2064.56487 Ang^3 )
     density =      0.49678 g/cm^3

CELL_PARAMETERS (alat= 23.76463845)
   1.002842118  -0.000647174   0.000000000
  -0.501978136   0.868165125   0.000000000
   0.000000000   0.000000000   1.192775420

ATOMIC_POSITIONS (crystal)
B             0.0663018495        0.1328142422        0.5000000000
B             0.0673440842        0.3336129987        0.5000000000
B             0.0660532929        0.5336088794        0.5000000000
B             0.0663805529        0.7335463940        0.5000000000
B             0.0667275695        0.9332724307        0.5000000000
B             0.2663260662        0.1316074472        0.5000000000
B             0.2660653216        0.3295063082        0.5000000000
B             0.2667145194        0.5370205599        0.5000000000
B             0.2649950207        0.7350049794        0.5000000000
B             0.2664536059        0.9336194474        0.5000000000
B             0.4667802676        0.1336844030        0.5000000000
B             0.4660121945        0.3329722332        0.5000000000
C             0.4677471367        0.5322528632        0.5000000000
B             0.4629794398        0.7332854809        0.5000000000
B             0.4663911206        0.9339467070        0.5000000000
B             0.6666895634        0.1332617552        0.5000000000
B             0.6667119836        0.3332880162        0.5000000000
B             0.6670277666        0.5339878052        0.5000000000
B             0.6704936920        0.7339346786        0.5000000000
B             0.6663870008        0.9326559158        0.5000000000
B             0.8667789446        0.1332210559        0.5000000000
B             0.8667382448        0.3333104362        0.5000000000
B             0.8663155974        0.5332197325        0.5000000000
B             0.8683925521        0.7336739335        0.5000000000
B             0.8671857580        0.9336981510        0.5000000000
N             0.1332156166        0.0662747990        0.5000000000
N             0.1328502800        0.2654438665        0.5000000000
N             0.1331582870        0.4675292249        0.5000000000
N             0.1321154341        0.6669668855        0.5000000000
N             0.1331740219        0.8668259781        0.5000000000
N             0.3334854541        0.0663770928        0.5000000000
N             0.3330525094        0.2641418253        0.5000000000
C             0.3386679948        0.4683427523        0.5000000000
N             0.3306100501        0.6693899504        0.5000000000
N             0.3330331148        0.8678845662        0.5000000001
N             0.5334421592        0.0672895217        0.5000000000
N             0.5334886934        0.2672760106        0.4999999999
N             0.5327325360        0.4672674647        0.5000000000
C             0.5316572481        0.6613320058        0.5000000000
N             0.5324707753        0.8668417124        0.5000000000
N             0.7331821704        0.0662623764        0.5000000000
N             0.7333753962        0.2666246037        0.4999999999
N             0.7327239899        0.4665113072        0.5000000000
N             0.7358581740        0.6669474909        0.5000000000
N             0.7345561333        0.8671497200        0.5000000000
N             0.9333602493        0.0666397501        0.5000000000
N             0.9337376235        0.2668178296        0.5000000000
N             0.9327104779        0.4665578410        0.5000000000
N             0.9336229063        0.6665145457        0.5000000000
N             0.9337252002        0.8667843830        0.5000000000



     Writing output data file ./TMP_DIR/hBN.save/
     NEW-OLD atomic charge density approx. for the potential

     negative rho (up, down):  3.163E-03 0.000E+00
     extrapolated charge  198.99343, renormalised to  199.00000

     total cpu time spent up to now is      735.0 secs

     Self-consistent Calculation

     iteration #  1     ecut=    60.00 Ry     beta= 0.70
     CG style diagonalization
     ethr =  1.00E-06,  avg # of iterations =  2.0

     Threshold (ethr) on eigenvalues was too large:
     Diagonalizing with lowered threshold

     CG style diagonalization
     c_bands:  2 eigenvalues not converged
     ethr =  3.75E-10,  avg # of iterations =  9.4

     negative rho (up, down):  3.165E-03 0.000E+00

     total cpu time spent up to now is      783.4 secs

     total energy              =    -983.49944545 Ry
     estimated scf accuracy    <       0.00000127 Ry

     iteration #  2     ecut=    60.00 Ry     beta= 0.70
     CG style diagonalization
     ethr =  6.39E-10,  avg # of iterations =  4.7

     negative rho (up, down):  3.163E-03 0.000E+00

     total cpu time spent up to now is      801.8 secs

     total energy              =    -983.49944707 Ry
     estimated scf accuracy    <       0.00000376 Ry

     iteration #  3     ecut=    60.00 Ry     beta= 0.70
     CG style diagonalization
     ethr =  6.39E-10,  avg # of iterations =  3.8

     negative rho (up, down):  3.163E-03 0.000E+00

     total cpu time spent up to now is      816.3 secs

     total energy              =    -983.49944729 Ry
     estimated scf accuracy    <       0.00000045 Ry

     iteration #  4     ecut=    60.00 Ry     beta= 0.70
     CG style diagonalization
     ethr =  2.25E-10,  avg # of iterations =  3.0

     negative rho (up, down):  3.163E-03 0.000E+00

     total cpu time spent up to now is      826.2 secs

     total energy              =    -983.49944725 Ry
     estimated scf accuracy    <       0.00000022 Ry

     iteration #  5     ecut=    60.00 Ry     beta= 0.70
     CG style diagonalization
     ethr =  1.11E-10,  avg # of iterations =  3.2

     negative rho (up, down):  3.163E-03 0.000E+00

     total cpu time spent up to now is      837.1 secs

     total energy              =    -983.49944725 Ry
     estimated scf accuracy    <       0.00000004 Ry

     iteration #  6     ecut=    60.00 Ry     beta= 0.70
     CG style diagonalization
     ethr =  2.11E-11,  avg # of iterations =  4.0

     negative rho (up, down):  3.163E-03 0.000E+00

     total cpu time spent up to now is      853.8 secs

     total energy              =    -983.49944726 Ry
     estimated scf accuracy    <          2.3E-09 Ry

     iteration #  7     ecut=    60.00 Ry     beta= 0.70
     CG style diagonalization
     ethr =  1.15E-12,  avg # of iterations =  3.6

     negative rho (up, down):  3.163E-03 0.000E+00

     total cpu time spent up to now is      867.3 secs

     total energy              =    -983.49944726 Ry
     estimated scf accuracy    <          2.3E-10 Ry

     iteration #  8     ecut=    60.00 Ry     beta= 0.70
     CG style diagonalization
     ethr =  1.15E-13,  avg # of iterations =  3.4

     negative rho (up, down):  3.163E-03 0.000E+00

     total cpu time spent up to now is      881.9 secs

     total energy              =    -983.49944726 Ry
     estimated scf accuracy    <          9.7E-11 Ry

     iteration #  9     ecut=    60.00 Ry     beta= 0.70
     CG style diagonalization
     ethr =  1.00E-13,  avg # of iterations =  3.0

     negative rho (up, down):  3.163E-03 0.000E+00

     total cpu time spent up to now is      894.8 secs

     total energy              =    -983.49944726 Ry
     estimated scf accuracy    <          5.2E-11 Ry

     iteration # 10     ecut=    60.00 Ry     beta= 0.70
     CG style diagonalization
     ethr =  1.00E-13,  avg # of iterations =  3.0

     negative rho (up, down):  3.163E-03 0.000E+00

     total cpu time spent up to now is      907.5 secs

     total energy              =    -983.49944726 Ry
     estimated scf accuracy    <          1.1E-11 Ry

     iteration # 11     ecut=    60.00 Ry     beta= 0.70
     CG style diagonalization
     ethr =  1.00E-13,  avg # of iterations =  3.0

     negative rho (up, down):  3.163E-03 0.000E+00

     total cpu time spent up to now is      918.1 secs

     total energy              =    -983.49944726 Ry
     estimated scf accuracy    <          1.3E-12 Ry

     iteration # 12     ecut=    60.00 Ry     beta= 0.70
     CG style diagonalization
     ethr =  1.00E-13,  avg # of iterations =  3.0

     negative rho (up, down):  3.163E-03 0.000E+00

     total cpu time spent up to now is      929.5 secs

     total energy              =    -983.49944726 Ry
     estimated scf accuracy    <          1.1E-13 Ry

     iteration # 13     ecut=    60.00 Ry     beta= 0.70
     CG style diagonalization
     ethr =  1.00E-13,  avg # of iterations =  3.0

     negative rho (up, down):  3.163E-03 0.000E+00

     total cpu time spent up to now is      940.6 secs

     total energy              =    -983.49944726 Ry
     estimated scf accuracy    <          7.8E-14 Ry

     iteration # 14     ecut=    60.00 Ry     beta= 0.70
     CG style diagonalization
     ethr =  1.00E-13,  avg # of iterations =  3.0

     negative rho (up, down):  3.163E-03 0.000E+00

     total cpu time spent up to now is      951.4 secs

     total energy              =    -983.49944726 Ry
     estimated scf accuracy    <          5.8E-14 Ry

     iteration # 15     ecut=    60.00 Ry     beta= 0.70
     CG style diagonalization
     ethr =  1.00E-13,  avg # of iterations =  3.0

     negative rho (up, down):  3.163E-03 0.000E+00

     total cpu time spent up to now is      962.9 secs

     total energy              =    -983.49944726 Ry
     estimated scf accuracy    <          1.7E-14 Ry

     iteration # 16     ecut=    60.00 Ry     beta= 0.70
     CG style diagonalization
     ethr =  1.00E-13,  avg # of iterations =  3.0

     negative rho (up, down):  3.163E-03 0.000E+00

     total cpu time spent up to now is      974.2 secs

     End of self-consistent calculation

          k = 0.0000 0.0000 0.0000 (109459 PWs)   bands (ev):

   -23.4839 -23.0733 -22.7433 -22.7292 -22.6952 -22.5121 -22.4475 -21.6767
   -21.3979 -21.3715 -21.3608 -21.2157 -21.2142 -21.0326 -20.9014 -20.8984
   -20.8347 -20.5115 -20.4978 -20.1318 -20.1096 -20.0816 -20.0516 -18.7055
   -16.6635 -14.7367 -14.2715 -14.2551 -14.1969 -14.1527 -14.1154 -14.0066
   -13.9259 -13.8240 -13.8104 -13.6694 -13.5179 -12.4696 -12.3672 -12.3337
   -12.3110 -12.1011 -12.0739 -11.9605 -11.7777 -11.7368 -11.6645 -11.5830
   -11.4268 -11.0210 -10.7099 -10.6367 -10.5932 -10.5083 -10.4420 -10.3554
   -10.2025 -10.0714 -10.0613 -10.0496 -10.0276  -9.9108  -9.8913  -9.8743
    -9.8455  -9.8358  -9.8183  -9.8098  -9.8062  -9.7313  -9.5118  -9.4971
    -9.2540  -9.0005  -8.4688  -8.4407  -8.4028  -8.3430  -8.2300  -8.2171
    -8.2014  -8.1917  -8.0710  -8.0319  -7.9201  -7.6645  -7.6145  -7.5233
    -7.5142  -7.4681  -7.2919  -7.1117  -6.7451  -6.7315  -6.3331  -6.3029
    -6.2589  -6.2550  -5.9842  -4.9534  -1.7362  -1.1030  -1.0804  -1.0797
    -1.0566  -1.0180  -0.9303  -0.3175  -0.1332  -0.0871  -0.0760  -0.0320
    -0.0084   0.0903   0.0966   0.1063   0.1109   0.1501   0.1921   0.2684

          k =-0.0004-0.5761 0.0000 (109392 PWs)   bands (ev):

   -23.3897 -23.2311 -22.9897 -22.7692 -22.4391 -22.1784 -22.0946 -22.0146
   -21.8988 -21.6895 -21.3018 -21.2465 -21.1890 -20.9474 -20.6381 -20.5413
   -20.5191 -20.5008 -20.4805 -20.4284 -20.3571 -20.0794 -20.0430 -18.7145
   -16.6841 -14.8613 -14.5343 -14.3575 -14.3508 -14.2263 -13.8904 -13.6763
   -13.6317 -13.6200 -13.4914 -13.4154 -13.0959 -13.0283 -12.9101 -12.7681
   -12.6462 -12.5626 -11.9255 -11.8975 -11.5698 -11.4973 -11.4626 -11.2907
   -11.1533 -10.9342 -10.8830 -10.7991 -10.7483 -10.7182 -10.5074 -10.4690
   -10.4294 -10.3157 -10.3058 -10.1816 -10.1071 -10.0557  -9.9814  -9.8818
    -9.7472  -9.4711  -9.3920  -9.3193  -9.2951  -9.2522  -9.2318  -9.2000
    -9.1954  -9.0989  -9.0624  -8.9030  -8.7937  -8.7394  -8.3342  -8.2705
    -8.1802  -8.0835  -8.0215  -7.9800  -7.9096  -7.8015  -7.6143  -7.0910
    -7.0279  -6.9633  -6.9464  -6.9188  -6.8766  -6.8608  -6.8181  -6.7855
    -6.5720  -6.2726  -5.9147  -5.0176  -1.6530  -1.0651  -1.0173  -0.9166
    -0.8088  -0.7940  -0.7701  -0.7506  -0.6947  -0.4390  -0.2701  -0.2075
    -0.1631  -0.1273  -0.1220   0.1586   0.1926   0.6728   0.7376   0.7418

          k =-0.4988-0.2884 0.0000 (109392 PWs)   bands (ev):

   -23.3897 -23.2311 -22.9897 -22.7692 -22.4391 -22.1784 -22.0946 -22.0146
   -21.8988 -21.6895 -21.3018 -21.2465 -21.1890 -20.9474 -20.6381 -20.5413
   -20.5191 -20.5008 -20.4805 -20.4284 -20.3571 -20.0794 -20.0430 -18.7145
   -16.6841 -14.8613 -14.5343 -14.3575 -14.3508 -14.2263 -13.8904 -13.6763
   -13.6317 -13.6200 -13.4914 -13.4154 -13.0959 -13.0283 -12.9101 -12.7681
   -12.6462 -12.5626 -11.9255 -11.8975 -11.5698 -11.4973 -11.4626 -11.2907
   -11.1533 -10.9342 -10.8830 -10.7991 -10.7483 -10.7182 -10.5074 -10.4690
   -10.4294 -10.3157 -10.3058 -10.1816 -10.1071 -10.0557  -9.9814  -9.8818
[...]

     total cpu time spent up to now is     1314.8 secs

     total energy              =    -983.49944729 Ry
     estimated scf accuracy    <       0.00000004 Ry

     iteration #  3     ecut=    60.00 Ry     beta= 0.70
     CG style diagonalization
     ethr =  1.49E-11,  avg # of iterations =  3.4

     negative rho (up, down):  3.163E-03 0.000E+00

     total cpu time spent up to now is     1330.6 secs

     total energy              =    -983.49944730 Ry
     estimated scf accuracy    <          1.7E-09 Ry

     iteration #  4     ecut=    60.00 Ry     beta= 0.70
     CG style diagonalization
     ethr =  8.36E-13,  avg # of iterations =  4.1

     negative rho (up, down):  3.163E-03 0.000E+00

     total cpu time spent up to now is     1351.9 secs

     total energy              =    -983.49944730 Ry
     estimated scf accuracy    <          3.3E-10 Ry

     iteration #  5     ecut=    60.00 Ry     beta= 0.70
     CG style diagonalization
     ethr =  1.66E-13,  avg # of iterations =  3.4

     negative rho (up, down):  3.163E-03 0.000E+00

     total cpu time spent up to now is     1367.7 secs

     total energy              =    -983.49944730 Ry
     estimated scf accuracy    <          1.6E-11 Ry

     iteration #  6     ecut=    60.00 Ry     beta= 0.70
     CG style diagonalization
     ethr =  1.00E-13,  avg # of iterations =  3.0

     negative rho (up, down):  3.163E-03 0.000E+00

     total cpu time spent up to now is     1380.8 secs

     total energy              =    -983.49944730 Ry
     estimated scf accuracy    <          5.2E-12 Ry

     iteration #  7     ecut=    60.00 Ry     beta= 0.70
     CG style diagonalization
     ethr =  1.00E-13,  avg # of iterations =  3.0

     negative rho (up, down):  3.163E-03 0.000E+00

     total cpu time spent up to now is     1393.3 secs

     total energy              =    -983.49944730 Ry
     estimated scf accuracy    <          3.7E-13 Ry

     iteration #  8     ecut=    60.00 Ry     beta= 0.70
     CG style diagonalization
     ethr =  1.00E-13,  avg # of iterations =  3.0

     negative rho (up, down):  3.163E-03 0.000E+00

     total cpu time spent up to now is     1405.5 secs

     total energy              =    -983.49944730 Ry
     estimated scf accuracy    <          1.2E-13 Ry

     iteration #  9     ecut=    60.00 Ry     beta= 0.70
     CG style diagonalization
     ethr =  1.00E-13,  avg # of iterations =  3.0

     negative rho (up, down):  3.163E-03 0.000E+00

     total cpu time spent up to now is     1417.4 secs

     total energy              =    -983.49944730 Ry
     estimated scf accuracy    <          6.4E-14 Ry

     iteration # 10     ecut=    60.00 Ry     beta= 0.70
     CG style diagonalization
     ethr =  1.00E-13,  avg # of iterations =  3.0

     negative rho (up, down):  3.163E-03 0.000E+00

     total cpu time spent up to now is     1429.9 secs

     total energy              =    -983.49944730 Ry
     estimated scf accuracy    <          2.7E-14 Ry

     iteration # 11     ecut=    60.00 Ry     beta= 0.70
     CG style diagonalization
     ethr =  1.00E-13,  avg # of iterations =  3.0

     negative rho (up, down):  3.163E-03 0.000E+00

     total cpu time spent up to now is     1442.2 secs

     End of self-consistent calculation

          k = 0.0000 0.0000 0.0000 (109459 PWs)   bands (ev):

   -23.4838 -23.0733 -22.7433 -22.7293 -22.6952 -22.5120 -22.4474 -21.6767
   -21.3978 -21.3714 -21.3608 -21.2158 -21.2142 -21.0326 -20.9014 -20.8984
   -20.8347 -20.5115 -20.4978 -20.1319 -20.1096 -20.0816 -20.0516 -18.7054
   -16.6634 -14.7367 -14.2714 -14.2551 -14.1968 -14.1527 -14.1154 -14.0066
   -13.9259 -13.8240 -13.8104 -13.6694 -13.5178 -12.4696 -12.3671 -12.3337
   -12.3109 -12.1011 -12.0739 -11.9605 -11.7777 -11.7367 -11.6645 -11.5830
   -11.4268 -11.0209 -10.7100 -10.6368 -10.5932 -10.5083 -10.4419 -10.3554
   -10.2024 -10.0713 -10.0614 -10.0496 -10.0276  -9.9108  -9.8914  -9.8743
    -9.8455  -9.8357  -9.8183  -9.8098  -9.8062  -9.7313  -9.5118  -9.4971
    -9.2540  -9.0005  -8.4689  -8.4407  -8.4028  -8.3430  -8.2300  -8.2171
    -8.2013  -8.1917  -8.0710  -8.0319  -7.9202  -7.6645  -7.6145  -7.5233
    -7.5142  -7.4681  -7.2919  -7.1117  -6.7451  -6.7315  -6.3331  -6.3029
    -6.2589  -6.2550  -5.9842  -4.9534  -1.7362  -1.1030  -1.0805  -1.0797
    -1.0566  -1.0180  -0.9303  -0.3176  -0.1332  -0.0872  -0.0761  -0.0320
    -0.0084   0.0902   0.0966   0.1063   0.1109   0.1501   0.1921   0.2684

          k =-0.0004-0.5761 0.0000 (109392 PWs)   bands (ev):

   -23.3897 -23.2311 -22.9897 -22.7692 -22.4391 -22.1783 -22.0946 -22.0146
   -21.8987 -21.6894 -21.3018 -21.2465 -21.1889 -20.9473 -20.6380 -20.5413
   -20.5191 -20.5008 -20.4806 -20.4284 -20.3571 -20.0794 -20.0430 -18.7145
   -16.6840 -14.8613 -14.5343 -14.3575 -14.3508 -14.2263 -13.8904 -13.6762
   -13.6316 -13.6200 -13.4914 -13.4154 -13.0959 -13.0283 -12.9101 -12.7681
   -12.6462 -12.5625 -11.9255 -11.8974 -11.5697 -11.4974 -11.4626 -11.2907
   -11.1533 -10.9342 -10.8830 -10.7991 -10.7483 -10.7182 -10.5074 -10.4690
   -10.4294 -10.3157 -10.3058 -10.1816 -10.1071 -10.0557  -9.9814  -9.8818
    -9.7472  -9.4711  -9.3920  -9.3192  -9.2952  -9.2522  -9.2318  -9.2000
    -9.1954  -9.0989  -9.0624  -8.9029  -8.7937  -8.7394  -8.3342  -8.2705
    -8.1802  -8.0834  -8.0215  -7.9800  -7.9097  -7.8015  -7.6143  -7.0909
    -7.0279  -6.9633  -6.9464  -6.9188  -6.8766  -6.8608  -6.8181  -6.7855
    -6.5720  -6.2726  -5.9147  -5.0176  -1.6530  -1.0651  -1.0173  -0.9167
    -0.8088  -0.7940  -0.7702  -0.7506  -0.6948  -0.4390  -0.2702  -0.2076
    -0.1631  -0.1273  -0.1221   0.1586   0.1926   0.6727   0.7375   0.7417

          k =-0.4988-0.2884 0.0000 (109392 PWs)   bands (ev):

   -23.3897 -23.2311 -22.9897 -22.7692 -22.4391 -22.1783 -22.0946 -22.0146
   -21.8987 -21.6894 -21.3018 -21.2465 -21.1889 -20.9473 -20.6380 -20.5413
   -20.5191 -20.5008 -20.4806 -20.4284 -20.3571 -20.0794 -20.0430 -18.7145
   -16.6840 -14.8613 -14.5343 -14.3575 -14.3508 -14.2263 -13.8904 -13.6762
   -13.6316 -13.6200 -13.4914 -13.4154 -13.0959 -13.0283 -12.9101 -12.7681
   -12.6462 -12.5625 -11.9255 -11.8974 -11.5697 -11.4974 -11.4626 -11.2907
   -11.1533 -10.9342 -10.8830 -10.7991 -10.7483 -10.7182 -10.5074 -10.4690
   -10.4294 -10.3157 -10.3058 -10.1816 -10.1071 -10.0557  -9.9814  -9.8818
    -9.7472  -9.4711  -9.3920  -9.3192  -9.2952  -9.2522  -9.2318  -9.2000
    -9.1954  -9.0989  -9.0624  -8.9029  -8.7937  -8.7394  -8.3342  -8.2705
    -8.1802  -8.0834  -8.0215  -7.9800  -7.9097  -7.8015  -7.6143  -7.0909
    -7.0279  -6.9633  -6.9464  -6.9188  -6.8766  -6.8608  -6.8181  -6.7855
    -6.5720  -6.2726  -5.9147  -5.0176  -1.6530  -1.0651  -1.0173  -0.9167
    -0.8088  -0.7940  -0.7702  -0.7506  -0.6948  -0.4390  -0.2702  -0.2076
    -0.1631  -0.1273  -0.1221   0.1586   0.1926   0.6726   0.7375   0.7417

          k =-0.4991-0.8645 0.0000 (109368 PWs)   bands (ev):

   -23.4176 -23.1506 -23.0135 -22.8290 -22.4277 -22.1800 -22.0815 -22.0097
   -21.9119 -21.5660 -21.3656 -21.2878 -21.2151 -20.9806 -20.5866 -20.5332
   -20.4906 -20.4855 -20.4742 -20.4404 -20.4160 -20.0986 -19.9949 -18.7272
   -16.6811 -14.8846 -14.4213 -14.3806 -14.3687 -14.2383 -13.8601 -13.7379
   -13.7324 -13.5836 -13.4940 -13.4876 -13.0159 -12.9731 -12.8776 -12.7298
   -12.7200 -12.4444 -12.0668 -11.8865 -11.5876 -11.5005 -11.3933 -11.3599
   -11.0629 -10.9663 -10.8932 -10.8462 -10.8103 -10.6765 -10.4896 -10.4305
   -10.4224 -10.3527 -10.3108 -10.2296 -10.0675 -10.0557  -9.9990  -9.9748
    -9.5382  -9.4651  -9.3803  -9.3257  -9.2575  -9.2384  -9.2229  -9.1778
    -9.1499  -9.1314  -9.0022  -8.9618  -8.9077  -8.6903  -8.6005  -8.2201
    -8.1730  -8.0626  -8.0032  -7.9967  -7.9136  -7.7438  -7.5817  -7.0956
    -7.0264  -6.9613  -6.9196  -6.9080  -6.8809  -6.8340  -6.8333  -6.7949
    -6.4843  -6.3794  -5.9642  -4.9822  -1.6572  -1.0551  -1.0466  -0.9069
    -0.8223  -0.8001  -0.7539  -0.7336  -0.7127  -0.3507  -0.2635  -0.2539
    -0.1550  -0.1505  -0.1403   0.1483   0.2098   0.6361   0.7396   0.7554

     the Fermi energy is    -4.9929 ev

!    total energy              =    -983.49944730 Ry

     total all-electron energy =     -3944.408432 Ry
     estimated scf accuracy    <          2.7E-15 Ry
     smearing contrib. (-TS)   =      -0.00250668 Ry
     internal energy E=F+TS    =    -983.49694061 Ry

     The total energy is F=E-TS. E is the sum of the following terms:
     one-electron contribution =   -6147.60911272 Ry
     hartree contribution      =    3104.54304291 Ry
     xc contribution           =    -219.13132259 Ry
     ewald contribution        =    2605.57635323 Ry
     one-center paw contrib.   =    -326.87590144 Ry

     convergence has been achieved in  11 iterations

     negative rho (up, down):  3.163E-03 0.000E+00

     Forces acting on atoms (cartesian axes, Ry/au):

     atom    1 type  1   force =     0.00000550    0.00002456    0.00000000
     atom    2 type  1   force =     0.00001101    0.00001146    0.00000000
     atom    3 type  1   force =     0.00001924   -0.00002089    0.00000000
     atom    4 type  1   force =     0.00001855   -0.00002582    0.00000000
     atom    5 type  1   force =     0.00000281   -0.00000164    0.00000000
     atom    6 type  1   force =     0.00000027    0.00003651    0.00000000
     atom    7 type  1   force =    -0.00001263    0.00002008    0.00000000
     atom    8 type  1   force =    -0.00000432   -0.00000995    0.00000000
     atom    9 type  1   force =     0.00002101   -0.00001213    0.00000000
     atom   10 type  1   force =     0.00003163   -0.00000317    0.00000000
     atom   11 type  1   force =     0.00001597    0.00002206    0.00000000
     atom   12 type  1   force =    -0.00002023    0.00003484    0.00000000
     atom   13 type  3   force =     0.00000191   -0.00000110    0.00000000
     atom   14 type  1   force =     0.00000646    0.00000872    0.00000000
     atom   15 type  1   force =     0.00002772   -0.00000622    0.00000000
     atom   16 type  1   force =     0.00000834   -0.00000656    0.00000000
     atom   17 type  1   force =    -0.00002215    0.00001280    0.00000000
     atom   18 type  1   force =    -0.00004028    0.00000011    0.00000000
     atom   19 type  1   force =    -0.00002370    0.00000090    0.00000000
     atom   20 type  1   force =    -0.00000441   -0.00001526    0.00000000
     atom   21 type  1   force =     0.00000547   -0.00000316    0.00000000
     atom   22 type  1   force =     0.00000985   -0.00000393    0.00000000
     atom   23 type  1   force =    -0.00001113   -0.00002485    0.00000000
     atom   24 type  1   force =    -0.00003149   -0.00001849    0.00000000
     atom   25 type  1   force =    -0.00001852   -0.00001706    0.00000000
     atom   26 type  2   force =     0.00001722   -0.00003825    0.00000000
     atom   27 type  2   force =    -0.00000499   -0.00004421    0.00000000
     atom   28 type  2   force =    -0.00002160   -0.00000361    0.00000000
     atom   29 type  2   force =    -0.00003660    0.00001811    0.00000000
     atom   30 type  2   force =    -0.00000164    0.00000096    0.00000000
     atom   31 type  2   force =    -0.00000311   -0.00001498    0.00000000
     atom   32 type  2   force =     0.00000289   -0.00004745    0.00000000
     atom   33 type  3   force =    -0.00002898   -0.00000325    0.00000000
     atom   34 type  2   force =    -0.00003642    0.00002101    0.00000000
     atom   35 type  2   force =    -0.00003399    0.00002264    0.00000000
     atom   36 type  2   force =    -0.00000164    0.00002601    0.00000000
     atom   37 type  2   force =     0.00001777   -0.00002434    0.00000000
     atom   38 type  2   force =    -0.00000330    0.00000189    0.00000000
     atom   39 type  3   force =    -0.00001168    0.00002671    0.00000000
     atom   40 type  2   force =    -0.00000769    0.00002051    0.00000000
     atom   41 type  2   force =     0.00001491    0.00003512    0.00000000
     atom   42 type  2   force =     0.00000746   -0.00000431    0.00000000
     atom   43 type  2   force =     0.00002997   -0.00000323    0.00000000
     atom   44 type  2   force =     0.00004254    0.00002121    0.00000000
     atom   45 type  2   force =     0.00003580    0.00002643    0.00000000
     atom   46 type  2   force =     0.00001929   -0.00001112    0.00000000
     atom   47 type  2   force =    -0.00002295   -0.00003047    0.00000000
     atom   48 type  2   force =    -0.00002333   -0.00001160    0.00000000
     atom   49 type  2   force =     0.00001144    0.00001019    0.00000000
     atom   50 type  2   force =     0.00004175    0.00000422    0.00000000

     Total force =     0.000206     Total SCF correction =     0.000000


     Computing stress (Cartesian axis) and pressure


     negative rho (up, down):  3.163E-03 0.000E+00
          total   stress  (Ry/bohr**3)                   (kbar)     P=       -0.17
   0.00000002  -0.00000001   0.00000000            0.00       -0.00        0.00
  -0.00000001   0.00000002   0.00000000           -0.00        0.00        0.00
   0.00000000   0.00000000  -0.00000359            0.00        0.00       -0.53

     Message from routine bfgs:
     history already reset at previous step: exiting
     Energy error            =      1.1E-08 Ry
     Gradient error          =      4.7E-05 Ry/Bohr
     Cell gradient error     =      3.6E-03 kbar

     bfgs converged in   6 scf cycles and   5 bfgs steps
     (criteria: energy <  1.0E-04 Ry, force <  1.9E-10Ry/Bohr, cell <  5.0E-03kbar)

     End of BFGS Geometry Optimization

     Final enthalpy           =    -983.4994472968 Ry

     File ./TMP_DIR/hBN.bfgs deleted, as requested
Begin final coordinates
     new unit-cell volume =  13932.43668 a.u.^3 (  2064.57411 Ang^3 )
     density =      0.49678 g/cm^3

CELL_PARAMETERS (alat= 23.76463845)
   1.002844635  -0.000647646   0.000000000
  -0.501979802   0.868167068   0.000000000
   0.000000000   0.000000000   1.192775420

ATOMIC_POSITIONS (crystal)
B             0.0663024116        0.1328124808        0.5000000000
B             0.0673421941        0.3336118117        0.5000000000
B             0.0660519231        0.5336081972        0.5000000000
B             0.0663801131        0.7335462748        0.5000000000
B             0.0667286513        0.9332713488        0.5000000000
B             0.2663253591        0.1316060213        0.5000000000
B             0.2660642316        0.3295061643        0.5000000000
B             0.2667141405        0.5370211581        0.5000000000
B             0.2649944742        0.7350055259        0.5000000000
B             0.2664537254        0.9336198872        0.5000000000
B             0.4667804786        0.1336846185        0.5000000000
B             0.4660115622        0.3329726226        0.5000000000
C             0.4677461111        0.5322538886        0.5000000000
B             0.4629788418        0.7332858595        0.5000000000
B             0.4663918027        0.9339480772        0.5000000000
B             0.6666915090        0.1332633161        0.5000000000
B             0.6667124477        0.3332875521        0.5000000000
B             0.6670273771        0.5339884375        0.5000000000
B             0.6704938355        0.7339357684        0.5000000000
B             0.6663881882        0.9326578062        0.5000000000
B             0.8667798432        0.1332201570        0.5000000000
B             0.8667366839        0.3333084908        0.5000000000
B             0.8663153816        0.5332195214        0.5000000000
B             0.8683939784        0.7336746409        0.5000000000
B             0.8671875195        0.9336975889        0.5000000000
N             0.1332155922        0.0662728782        0.5000000000
N             0.1328496249        0.2654421266        0.5000000000
N             0.1331587256        0.4675294224        0.5000000000
N             0.1321144732        0.6669667581        0.5000000000
N             0.1331743795        0.8668256202        0.5000000000
N             0.3334858096        0.0663772477        0.5000000000
N             0.3330519317        0.2641411506        0.5000000000
C             0.3386668634        0.4683437146        0.5000000000
N             0.3306096445        0.6693903557        0.5000000000
N             0.3330332421        0.8678855268        0.5000000001
N             0.5334442201        0.0672914085        0.5000000000
N             0.5334887381        0.2672757290        0.4999999999
N             0.5327310855        0.4672689149        0.5000000000
C             0.5316562857        0.6613331371        0.5000000000
N             0.5324705778        0.8668412744        0.5000000000
N             0.7331847983        0.0662651258        0.5000000000
N             0.7333757787        0.2666242214        0.4999999999
N             0.7327242712        0.4665112623        0.5000000000
N             0.7358588491        0.6669480685        0.5000000000
N             0.7345578734        0.8671503753        0.5000000000
N             0.9333607542        0.0666392453        0.5000000000
N             0.9337348740        0.2668152016        0.5000000000
N             0.9327085913        0.4665557801        0.5000000000
N             0.9336227517        0.6665141903        0.5000000000
N             0.9337271210        0.8667844074        0.5000000000
End final coordinates



     Writing output data file ./TMP_DIR/hBN.save/

     Writing output data file ./TMP_DIR/hBN.save/
 
     init_run     :      6.91s CPU      7.17s WALL (       1 calls)
     electrons    :   1356.47s CPU   1373.16s WALL (       6 calls)
     update_pot   :     15.90s CPU     15.98s WALL (       5 calls)
     forces       :     12.91s CPU     13.31s WALL (       6 calls)
     stress       :     38.27s CPU     38.52s WALL (       6 calls)

     Called by init_run:
     wfcinit      :      1.80s CPU      1.90s WALL (       1 calls)
     potinit      :      1.84s CPU      1.87s WALL (       1 calls)
     hinit0       :      1.59s CPU      1.60s WALL (       1 calls)

     Called by electrons:
     c_bands      :   1297.55s CPU   1308.74s WALL (      90 calls)
     sum_band     :     43.57s CPU     45.11s WALL (      90 calls)
     v_of_rho     :      6.15s CPU      6.35s WALL (      91 calls)
     newd         :      5.61s CPU      7.29s WALL (      91 calls)
     PAW_pot      :      2.06s CPU      2.21s WALL (      96 calls)
     mix_rho      :      1.21s CPU      1.28s WALL (      90 calls)

     Called by c_bands:
     init_us_2    :      1.72s CPU      1.75s WALL (     792 calls)
     ccgdiagg     :   1211.90s CPU   1222.21s WALL (     372 calls)
     wfcrot       :     85.48s CPU     86.29s WALL (     332 calls)

     Called by *cgdiagg:
     h_psi        :    732.02s CPU    737.74s WALL (  124248 calls)
     s_psi        :    192.16s CPU    194.66s WALL (  248164 calls)

     Called by h_psi:
     h_psi:calbec :    289.58s CPU    291.48s WALL (  124248 calls)
     vloc_psi     :    328.46s CPU    331.36s WALL (  124248 calls)
     add_vuspsi   :    111.05s CPU    112.28s WALL (  124248 calls)
     hs_1psi      :    761.33s CPU    767.46s WALL (  123916 calls)
     s_1psi       :    249.15s CPU    251.01s WALL (  123916 calls)

     General routines
     calbec       :    451.00s CPU    454.41s WALL (  248664 calls)
     fft          :      7.33s CPU      7.43s WALL (    1331 calls)
     ffts         :      0.53s CPU      0.54s WALL (     181 calls)
     fftw         :    334.43s CPU    337.30s WALL (  371352 calls)
     interpolate  :      0.68s CPU      0.70s WALL (      91 calls)
     davcio       :      0.00s CPU      0.01s WALL (       4 calls)
 
     Parallel routines
 
     PWSCF        :  23m53.12s CPU  24m14.00s WALL

 
   This run was terminated on:  12:12:40  26Nov2022            

=------------------------------------------------------------------------------=
   JOB DONE.
=------------------------------------------------------------------------------=
