
     Program PWSCF v.6.8 starts on 29Nov2022 at 22:53: 1 

     This program is part of the open-source Quantum ESPRESSO suite
     for quantum simulation of materials; please cite
         "P. Giannozzi et al., J. Phys.:Condens. Matter 21 395502 (2009);
         "P. Giannozzi et al., J. Phys.:Condens. Matter 29 465901 (2017);
         "P. Giannozzi et al., J. Chem. Phys. 152 154105 (2020);
          URL http://www.quantum-espresso.org", 
     in publications or presentations arising from this work. More details at
     http://www.quantum-espresso.org/quote

     Parallel version (MPI & OpenMP), running on      64 processor cores
     Number of MPI processes:                64
     Threads/MPI process:                     1

     MPI processes distributed on     2 nodes
     R & G space division:  proc/nbgrp/npool/nimage =      64
     92342 MiB available memory on the printing compute node when the environment starts
 
     Waiting for input...
     Reading input from standard input

     Current dimensions of program PWSCF are:
     Max number of different atomic species (ntypx) = 10
     Max number of k-points (npk) =  40000
     Max angular momentum in pseudopotentials (lmaxx) =  4
     file N.pbe-n-kjpaw_psl.1.0.0.UPF: wavefunction(s)  2S renormalized
     file C.pbe-n-kjpaw_psl.1.0.0.UPF: wavefunction(s)  2S 2P renormalized
     Message from routine setup:
     using ibrav=0 with symmetry is DISCOURAGED, use correct ibrav instead

     Subspace diagonalization in iterative solution of the eigenvalue problem:
     one sub-group per band group will be used
     scalapack distributed-memory algorithm (size of sub-group:  8*  8 procs)

 
     Parallelization info
     --------------------
     sticks:   dense  smooth     PW     G-vecs:    dense   smooth      PW
     Min         305     146     39                41099    13666    1887
     Max         306     147     40                41106    13675    1892
     Sum       19551    9379   2523              2630495   874849  120871
 
     Using Slab Decomposition
 


     bravais-lattice index     =            0
     lattice parameter (alat)  =      23.7646  a.u.
     unit-cell volume          =   13932.4750 (a.u.)^3
     number of atoms/cell      =           50
     number of atomic types    =            3
     number of electrons       =       199.00
     number of Kohn-Sham states=          120
     kinetic-energy cutoff     =      60.0000  Ry
     charge density cutoff     =     500.0000  Ry
     scf convergence threshold =      1.0E-12
     mixing beta               =       0.7000
     number of iterations used =            8  plain     mixing
     Exchange-correlation= SLA  PW   PBX  PBC
                           (   1   4   3   4   0   0   0)

     celldm(1)=  23.764638  celldm(2)=   0.000000  celldm(3)=   0.000000
     celldm(4)=   0.000000  celldm(5)=   0.000000  celldm(6)=   0.000000

     crystal axes: (cart. coord. in units of alat)
               a(1) = (   1.002846  -0.000648   0.000000 )  
               a(2) = (  -0.501981   0.868168   0.000000 )  
               a(3) = (   0.000000   0.000000   1.192775 )  

     reciprocal axes: (cart. coord. in units 2 pi/alat)
               b(1) = (  0.997534  0.576782  0.000000 )  
               b(2) = (  0.000744  1.152281  0.000000 )  
               b(3) = (  0.000000  0.000000  0.838381 )  


     PseudoPot. # 1 for B  read from file:
     ./pseudo/B.pbe-n-kjpaw_psl.1.0.0.UPF
     MD5 check sum: 8c825a5969375aca5c2c6ad5945b3059
     Pseudo is Projector augmented-wave + core cor, Zval =  3.0
     Generated using &quot;atomic&quot; code by A. Dal Corso  v.6.3
     Shape of augmentation charge: PSQ
     Using radial grid of 1059 points,  4 beta functions with: 
                l(1) =   0
                l(2) =   0
                l(3) =   1
                l(4) =   1
     Q(r) pseudized with 0 coefficients 


     PseudoPot. # 2 for N  read from file:
     ./pseudo/N.pbe-n-kjpaw_psl.1.0.0.UPF
     MD5 check sum: 14c48229446f9f2d411169a3abcbc3fa
     Pseudo is Projector augmented-wave + core cor, Zval =  5.0
     Generated using &quot;atomic&quot; code by A. Dal Corso  v.6.3
     Shape of augmentation charge: PSQ
     Using radial grid of 1085 points,  4 beta functions with: 
                l(1) =   0
                l(2) =   0
                l(3) =   1
                l(4) =   1
     Q(r) pseudized with 0 coefficients 


     PseudoPot. # 3 for C  read from file:
     ./pseudo/C.pbe-n-kjpaw_psl.1.0.0.UPF
     MD5 check sum: 5f16ad9a65e90284d1d834d4ab3b0f7d
     Pseudo is Projector augmented-wave + core cor, Zval =  4.0
     Generated using &quot;atomic&quot; code by A. Dal Corso  v.6.3
     Shape of augmentation charge: PSQ
     Using radial grid of 1073 points,  4 beta functions with: 
                l(1) =   0
                l(2) =   0
                l(3) =   1
                l(4) =   1
     Q(r) pseudized with 0 coefficients 


     atomic species   valence    mass     pseudopotential
        B              3.00    10.81100     B ( 1.00)
        N              5.00    14.00670     N ( 1.00)
        C              4.00    12.01070     C ( 1.00)

      2 Sym. Ops. (no inversion) found



   Cartesian axes

     site n.     atom                  positions (alat units)
         1           B   tau(   1) = (  -0.0001740   0.1152582   0.5963877  )
         2           B   tau(   2) = (  -0.0999331   0.2895850   0.5963877  )
         3           B   tau(   3) = (  -0.2016233   0.4632159   0.5963877  )
         4           B   tau(   4) = (  -0.3016569   0.6367957   0.5963877  )
         5           B   tau(   5) = (  -0.4015618   0.8101906   0.5963877  )
         6           B   tau(   6) = (   0.2010216   0.1140846   0.5963877  )
         7           B   tau(   7) = (   0.1014132   0.2858950   0.5963877  )
         8           B   tau(   8) = (  -0.0021057   0.4660525   0.5963877  )
         9           B   tau(   9) = (  -0.1032121   0.6379376   0.5963877  )
        10           B   tau(  10) = (  -0.2014450   0.8103672   0.5963877  )
        11           B   tau(  11) = (   0.4010033   0.1157613   0.5963877  )
        12           B   tau(  12) = (   0.3001886   0.2887774   0.5963877  )
        13           C   tau(  13) = (   0.2018910   0.4617856   0.5963877  )
        14           B   tau(  14) = (   0.0961979   0.6363189   0.5963877  )
        15           B   tau(  15) = (  -0.0011037   0.8105247   0.5963877  )
        16           B   tau(  16) = (   0.6016958   0.1152641   0.5963877  )
        17           B   tau(  17) = (   0.5013038   0.2889189   0.5963877  )
        18           B   tau(  18) = (   0.4008693   0.4631609   0.5963877  )
        19           B   tau(  19) = (   0.3039784   0.6367470   0.5963877  )
        20           B   tau(  20) = (   0.2001102   0.8092733   0.5963877  )
        21           B   tau(  21) = (   0.8023773   0.1150934   0.5963877  )
        22           B   tau(  22) = (   0.7018893   0.2888036   0.5963877  )
        23           B   tau(  23) = (   0.6011130   0.4623602   0.5963877  )
        24           B   tau(  24) = (   0.5025748   0.6363881   0.5963877  )
        25           B   tau(  25) = (   0.4009611   0.8100422   0.5963877  )
        26           N   tau(  26) = (   0.1003313   0.0574464   0.5963877  )
        27           N   tau(  27) = (  -0.0000193   0.2303588   0.5963877  )
        28           N   tau(  28) = (  -0.1011561   0.4058056   0.5963877  )
        29           N   tau(  29) = (  -0.2023160   0.5789521   0.5963877  )
        30           N   tau(  30) = (  -0.3015736   0.7524621   0.5963877  )
        31           N   tau(  31) = (   0.3011169   0.0574113   0.5963877  )
        32           N   tau(  32) = (   0.2014044   0.2291028   0.5963877  )
        33           C   tau(  33) = (   0.1045260   0.4063829   0.5963877  )
        34           N   tau(  34) = (  -0.0044744   0.5809312   0.5963877  )
        35           N   tau(  35) = (  -0.1016807   0.7532569   0.5963877  )
        36           N   tau(  36) = (   0.5011851   0.0580781   0.5963877  )
        37           N   tau(  37) = (   0.4008382   0.2316965   0.5963877  )
        38           N   tau(  38) = (   0.2996824   0.4053255   0.5963877  )
        39           C   tau(  39) = (   0.2011890   0.5738076   0.5963877  )
        40           N   tau(  40) = (   0.0988485   0.7522225   0.5963877  )
        41           N   tau(  41) = (   0.7020110   0.0570560   0.5963877  )
        42           N   tau(  42) = (   0.6016222   0.2309999   0.5963877  )
        43           N   tau(  43) = (   0.5006275   0.4045359   0.5963877  )
        44           N   tau(  44) = (   0.4031573   0.5785478   0.5963877  )
        45           N   tau(  45) = (   0.3013583   0.7523581   0.5963877  )
        46           N   tau(  46) = (   0.9025706   0.0572465   0.5963877  )
        47           N   tau(  47) = (   0.8024564   0.2310319   0.5963877  )
        48           N   tau(  48) = (   0.7011588   0.4044415   0.5963877  )
        49           N   tau(  49) = (   0.6017027   0.5780393   0.5963877  )
        50           N   tau(  50) = (   0.5012801   0.7519075   0.5963877  )

     number of k points=     4  Methfessel-Paxton smearing, width (Ry)=  0.0100
                       cart. coord. in units 2pi/alat
        k(    1) = (   0.0000000   0.0000000   0.0000000), wk =   0.5000000
        k(    2) = (  -0.0003722  -0.5761406   0.0000000), wk =   0.5000000
        k(    3) = (  -0.4987672  -0.2883910   0.0000000), wk =   0.5000000
        k(    4) = (  -0.4991394  -0.8645316   0.0000000), wk =   0.5000000

     Dense  grid:  2630495 G-vectors     FFT dimensions: ( 180, 180, 216)

     Smooth grid:   874849 G-vectors     FFT dimensions: ( 120, 120, 144)

     Estimated max dynamical RAM per process >     127.09 MB

     Estimated total dynamical RAM >       7.94 GB
 ----2D----2D----2D----2D----2D----2D----2D----2D----2D----2D----2D----2D
  The code is running with the 2D cutoff
  Please refer to:
  Sohier, T., Calandra, M., & Mauri, F. (2017), 
  Density functional perturbation theory for gated two-dimensional heterostructu
 res:
  Theoretical developments and application to flexural phonons in graphene.
  Physical Review B, 96(7), 75448. https://doi.org/10.1103/PhysRevB.96.075448
 ----2D----2D----2D----2D----2D----2D----2D----2D----2D----2D----2D----2D

     Initial potential from superposition of free atoms

     starting charge  198.99293, renormalised to  199.00000

     negative rho (up, down):  1.345E-03 0.000E+00
     Starting wfcs are  200 randomized atomic wfcs
     Checking if some PAW data can be deallocated... 

     total cpu time spent up to now is        8.4 secs

     Self-consistent Calculation

     iteration #  1     ecut=    60.00 Ry     beta= 0.70
     CG style diagonalization
     ethr =  1.00E-02,  avg # of iterations =  3.0

     negative rho (up, down):  1.208E-03 0.000E+00

     total cpu time spent up to now is       33.5 secs

     total energy              =    -980.05261985 Ry
     estimated scf accuracy    <       9.86201432 Ry

     iteration #  2     ecut=    60.00 Ry     beta= 0.70
     CG style diagonalization
     ethr =  4.96E-03,  avg # of iterations =  3.9

     negative rho (up, down):  1.319E-03 0.000E+00

     total cpu time spent up to now is       59.7 secs

     total energy              =    -982.06126013 Ry
     estimated scf accuracy    <       6.07279217 Ry

     iteration #  3     ecut=    60.00 Ry     beta= 0.70
     CG style diagonalization
     ethr =  3.05E-03,  avg # of iterations =  3.8

     negative rho (up, down):  1.577E-03 0.000E+00

     total cpu time spent up to now is       83.9 secs

     total energy              =    -983.37861016 Ry
     estimated scf accuracy    <       0.22759767 Ry

     iteration #  4     ecut=    60.00 Ry     beta= 0.70
     CG style diagonalization
     c_bands:  1 eigenvalues not converged
     c_bands:  4 eigenvalues not converged
     c_bands:  4 eigenvalues not converged
     c_bands:  1 eigenvalues not converged
     ethr =  1.14E-04,  avg # of iterations =  5.1

     negative rho (up, down):  1.990E-03 0.000E+00

     total cpu time spent up to now is      118.8 secs

     total energy              =    -983.46080215 Ry
     estimated scf accuracy    <       0.20281469 Ry

     iteration #  5     ecut=    60.00 Ry     beta= 0.70
     CG style diagonalization
     c_bands:  1 eigenvalues not converged
     ethr =  1.02E-04,  avg # of iterations =  3.4

     negative rho (up, down):  2.531E-03 0.000E+00

     total cpu time spent up to now is      140.6 secs

     total energy              =    -983.49490019 Ry
     estimated scf accuracy    <       0.01670477 Ry

     iteration #  6     ecut=    60.00 Ry     beta= 0.70
     CG style diagonalization
     c_bands:  3 eigenvalues not converged
     c_bands:  2 eigenvalues not converged
     c_bands:  2 eigenvalues not converged
     c_bands:  1 eigenvalues not converged
     ethr =  8.39E-06,  avg # of iterations =  4.5

     negative rho (up, down):  3.079E-03 0.000E+00

     total cpu time spent up to now is      170.6 secs

     total energy              =    -983.49900982 Ry
     estimated scf accuracy    <       0.00136439 Ry

     iteration #  7     ecut=    60.00 Ry     beta= 0.70
     CG style diagonalization
     c_bands:  3 eigenvalues not converged
     c_bands:  1 eigenvalues not converged
     c_bands:  1 eigenvalues not converged
     ethr =  6.86E-07,  avg # of iterations =  4.8

     negative rho (up, down):  3.185E-03 0.000E+00

     total cpu time spent up to now is      203.3 secs

     total energy              =    -983.49935010 Ry
     estimated scf accuracy    <       0.00129464 Ry

     iteration #  8     ecut=    60.00 Ry     beta= 0.70
     CG style diagonalization
     c_bands:  1 eigenvalues not converged
     ethr =  6.51E-07,  avg # of iterations =  3.2

     negative rho (up, down):  3.165E-03 0.000E+00

     total cpu time spent up to now is      223.3 secs

     total energy              =    -983.49938633 Ry
     estimated scf accuracy    <       0.00026303 Ry

     iteration #  9     ecut=    60.00 Ry     beta= 0.70
     CG style diagonalization
     ethr =  1.32E-07,  avg # of iterations =  3.6

     negative rho (up, down):  3.152E-03 0.000E+00

     total cpu time spent up to now is      246.1 secs

     total energy              =    -983.49942873 Ry
     estimated scf accuracy    <       0.00002190 Ry

     iteration # 10     ecut=    60.00 Ry     beta= 0.70
     CG style diagonalization
     ethr =  1.10E-08,  avg # of iterations =  4.2

     negative rho (up, down):  3.155E-03 0.000E+00

     total cpu time spent up to now is      274.1 secs

     total energy              =    -983.49943963 Ry
     estimated scf accuracy    <       0.00000360 Ry

     iteration # 11     ecut=    60.00 Ry     beta= 0.70
     CG style diagonalization
     ethr =  1.81E-09,  avg # of iterations =  3.2

     negative rho (up, down):  3.160E-03 0.000E+00

     total cpu time spent up to now is      293.8 secs

     total energy              =    -983.49943940 Ry
     estimated scf accuracy    <       0.00000138 Ry

     iteration # 12     ecut=    60.00 Ry     beta= 0.70
     CG style diagonalization
     ethr =  6.96E-10,  avg # of iterations =  3.7

     negative rho (up, down):  3.161E-03 0.000E+00

     total cpu time spent up to now is      318.3 secs

     total energy              =    -983.49943964 Ry
     estimated scf accuracy    <       0.00000006 Ry

     iteration # 13     ecut=    60.00 Ry     beta= 0.70
     CG style diagonalization
     ethr =  2.81E-11,  avg # of iterations =  4.3

     negative rho (up, down):  3.161E-03 0.000E+00

     total cpu time spent up to now is      346.8 secs

     total energy              =    -983.49943968 Ry
     estimated scf accuracy    <          8.8E-09 Ry

     iteration # 14     ecut=    60.00 Ry     beta= 0.70
     CG style diagonalization
     ethr =  4.43E-12,  avg # of iterations =  3.5

     negative rho (up, down):  3.161E-03 0.000E+00

     total cpu time spent up to now is      368.8 secs

     total energy              =    -983.49943968 Ry
     estimated scf accuracy    <          1.9E-09 Ry

     iteration # 15     ecut=    60.00 Ry     beta= 0.70
     CG style diagonalization
     ethr =  9.37E-13,  avg # of iterations =  3.4

     negative rho (up, down):  3.161E-03 0.000E+00

     total cpu time spent up to now is      390.0 secs

     total energy              =    -983.49943968 Ry
     estimated scf accuracy    <          3.9E-10 Ry

     iteration # 16     ecut=    60.00 Ry     beta= 0.70
     CG style diagonalization
     ethr =  1.94E-13,  avg # of iterations =  4.0

     negative rho (up, down):  3.161E-03 0.000E+00

     total cpu time spent up to now is      416.1 secs

     total energy              =    -983.49943968 Ry
     estimated scf accuracy    <          1.9E-11 Ry

     iteration # 17     ecut=    60.00 Ry     beta= 0.70
     CG style diagonalization
     ethr =  1.00E-13,  avg # of iterations =  3.0

     negative rho (up, down):  3.161E-03 0.000E+00

     total cpu time spent up to now is      434.5 secs

     total energy              =    -983.49943968 Ry
     estimated scf accuracy    <          2.5E-12 Ry

     iteration # 18     ecut=    60.00 Ry     beta= 0.70
     CG style diagonalization
     ethr =  1.00E-13,  avg # of iterations =  3.0

     negative rho (up, down):  3.161E-03 0.000E+00

     total cpu time spent up to now is      453.1 secs

     total energy              =    -983.49943968 Ry
     estimated scf accuracy    <          1.2E-12 Ry

     iteration # 19     ecut=    60.00 Ry     beta= 0.70
     CG style diagonalization
     ethr =  1.00E-13,  avg # of iterations =  3.0

     negative rho (up, down):  3.161E-03 0.000E+00

     total cpu time spent up to now is      471.4 secs

     End of self-consistent calculation

          k = 0.0000 0.0000 0.0000 (109459 PWs)   bands (ev):

   -23.4838 -23.0733 -22.7432 -22.7292 -22.6951 -22.5120 -22.4474 -21.6767
   -21.3978 -21.3714 -21.3608 -21.2157 -21.2141 -21.0326 -20.9014 -20.8984
   -20.8347 -20.5114 -20.4977 -20.1318 -20.1096 -20.0815 -20.0516 -18.7055
   -16.6636 -14.7367 -14.2714 -14.2551 -14.1968 -14.1527 -14.1154 -14.0066
   -13.9259 -13.8240 -13.8104 -13.6694 -13.5178 -12.4696 -12.3671 -12.3337
   -12.3109 -12.1011 -12.0739 -11.9606 -11.7777 -11.7367 -11.6644 -11.5830
   -11.4269 -11.0209 -10.7100 -10.6368 -10.5932 -10.5083 -10.4419 -10.3553
   -10.2024 -10.0713 -10.0614 -10.0495 -10.0276  -9.9108  -9.8913  -9.8743
    -9.8455  -9.8357  -9.8183  -9.8099  -9.8062  -9.7313  -9.5118  -9.4972
    -9.2541  -9.0006  -8.4688  -8.4407  -8.4028  -8.3429  -8.2300  -8.2171
    -8.2013  -8.1917  -8.0710  -8.0319  -7.9202  -7.6645  -7.6145  -7.5233
    -7.5142  -7.4681  -7.2919  -7.1117  -6.7452  -6.7317  -6.3330  -6.3029
    -6.2589  -6.2550  -5.9843  -4.9535  -1.7363  -1.1029  -1.0805  -1.0797
    -1.0566  -1.0180  -0.9303  -0.3176  -0.1331  -0.0873  -0.0760  -0.0320
    -0.0083   0.0903   0.0967   0.1065   0.1114   0.1507   1.1644   1.1974

          k =-0.0004-0.5761 0.0000 (109378 PWs)   bands (ev):

   -23.3897 -23.2310 -22.9897 -22.7691 -22.4391 -22.1783 -22.0946 -22.0146
   -21.8987 -21.6894 -21.3018 -21.2465 -21.1889 -20.9473 -20.6380 -20.5412
   -20.5190 -20.5008 -20.4805 -20.4284 -20.3572 -20.0794 -20.0430 -18.7146
   -16.6841 -14.8614 -14.5343 -14.3574 -14.3508 -14.2263 -13.8903 -13.6762
   -13.6316 -13.6200 -13.4914 -13.4154 -13.0959 -13.0283 -12.9101 -12.7681
   -12.6463 -12.5625 -11.9255 -11.8974 -11.5698 -11.4974 -11.4626 -11.2907
   -11.1532 -10.9342 -10.8831 -10.7990 -10.7482 -10.7182 -10.5073 -10.4689
   -10.4295 -10.3157 -10.3058 -10.1816 -10.1070 -10.0557  -9.9814  -9.8818
    -9.7473  -9.4711  -9.3920  -9.3192  -9.2951  -9.2523  -9.2317  -9.2000
    -9.1954  -9.0989  -9.0624  -8.9030  -8.7937  -8.7394  -8.3342  -8.2705
    -8.1802  -8.0835  -8.0215  -7.9799  -7.9096  -7.8015  -7.6143  -7.0909
    -7.0281  -6.9632  -6.9464  -6.9188  -6.8766  -6.8609  -6.8180  -6.7856
    -6.5721  -6.2726  -5.9147  -5.0177  -1.6531  -1.0652  -1.0173  -0.9166
    -0.8087  -0.7940  -0.7702  -0.7506  -0.6948  -0.4391  -0.2702  -0.2076
    -0.1631  -0.1273  -0.1220   0.1588   0.1927   0.6727   0.7375   0.7424

          k =-0.4988-0.2884 0.0000 (109378 PWs)   bands (ev):

   -23.3897 -23.2310 -22.9897 -22.7691 -22.4391 -22.1783 -22.0946 -22.0146
   -21.8987 -21.6894 -21.3018 -21.2465 -21.1889 -20.9473 -20.6380 -20.5412
   -20.5190 -20.5008 -20.4805 -20.4284 -20.3572 -20.0794 -20.0430 -18.7146
   -16.6841 -14.8614 -14.5343 -14.3574 -14.3508 -14.2263 -13.8903 -13.6762
   -13.6316 -13.6200 -13.4914 -13.4154 -13.0959 -13.0283 -12.9101 -12.7681
   -12.6463 -12.5625 -11.9255 -11.8974 -11.5698 -11.4974 -11.4626 -11.2907
   -11.1532 -10.9342 -10.8831 -10.7990 -10.7482 -10.7182 -10.5073 -10.4689
   -10.4295 -10.3157 -10.3058 -10.1816 -10.1070 -10.0557  -9.9814  -9.8818
    -9.7473  -9.4711  -9.3920  -9.3192  -9.2951  -9.2523  -9.2317  -9.2000
    -9.1954  -9.0989  -9.0624  -8.9030  -8.7937  -8.7394  -8.3342  -8.2705
    -8.1802  -8.0835  -8.0215  -7.9799  -7.9096  -7.8015  -7.6143  -7.0909
    -7.0281  -6.9632  -6.9464  -6.9188  -6.8766  -6.8609  -6.8180  -6.7856
    -6.5721  -6.2726  -5.9147  -5.0177  -1.6531  -1.0652  -1.0173  -0.9166
    -0.8087  -0.7940  -0.7702  -0.7506  -0.6948  -0.4391  -0.2701  -0.2076
    -0.1631  -0.1273  -0.1220   0.1588   0.1927   0.6727   0.7376   0.7422

          k =-0.4991-0.8645 0.0000 (109336 PWs)   bands (ev):

   -23.4176 -23.1506 -23.0135 -22.8290 -22.4277 -22.1800 -22.0815 -22.0097
   -21.9119 -21.5660 -21.3655 -21.2878 -21.2151 -20.9806 -20.5865 -20.5331
   -20.4906 -20.4856 -20.4742 -20.4404 -20.4159 -20.0985 -19.9949 -18.7273
   -16.6812 -14.8847 -14.4213 -14.3806 -14.3687 -14.2383 -13.8601 -13.7379
   -13.7324 -13.5835 -13.4940 -13.4876 -13.0159 -12.9730 -12.8776 -12.7298
   -12.7201 -12.4445 -12.0668 -11.8865 -11.5876 -11.5005 -11.3934 -11.3599
   -11.0629 -10.9663 -10.8932 -10.8462 -10.8103 -10.6765 -10.4894 -10.4305
   -10.4224 -10.3526 -10.3108 -10.2295 -10.0674 -10.0557  -9.9991  -9.9748
    -9.5382  -9.4651  -9.3803  -9.3257  -9.2575  -9.2384  -9.2229  -9.1778
    -9.1499  -9.1314  -9.0022  -8.9617  -8.9077  -8.6903  -8.6005  -8.2201
    -8.1730  -8.0626  -8.0032  -7.9966  -7.9135  -7.7438  -7.5816  -7.0957
    -7.0263  -6.9612  -6.9196  -6.9079  -6.8809  -6.8343  -6.8333  -6.7949
    -6.4843  -6.3793  -5.9642  -4.9823  -1.6574  -1.0551  -1.0466  -0.9068
    -0.8222  -0.8001  -0.7539  -0.7336  -0.7127  -0.3507  -0.2635  -0.2538
    -0.1550  -0.1505  -0.1403   0.1485   0.2098   0.6363   0.7399   0.7555

     the Fermi energy is    -4.9930 ev

!    total energy              =    -983.49943968 Ry

     total all-electron energy =     -3944.408425 Ry
     estimated scf accuracy    <          3.7E-13 Ry
     smearing contrib. (-TS)   =      -0.00250668 Ry
     internal energy E=F+TS    =    -983.49693301 Ry

     The total energy is F=E-TS. E is the sum of the following terms:
     one-electron contribution =   -6147.59243036 Ry
     hartree contribution      =    3104.53464817 Ry
     xc contribution           =    -219.13118450 Ry
     ewald contribution        =    2605.56792649 Ry
     one-center paw contrib.   =    -326.87589281 Ry

     convergence has been achieved in  19 iterations

     negative rho (up, down):  3.161E-03 0.000E+00

     Forces acting on atoms (cartesian axes, Ry/au):

     atom    1 type  1   force =     0.00000032   -0.00000020    0.00000000
     atom    2 type  1   force =    -0.00000000   -0.00000018    0.00000000
     atom    3 type  1   force =    -0.00000017   -0.00000017    0.00000000
     atom    4 type  1   force =     0.00000002   -0.00000016    0.00000000
     atom    5 type  1   force =     0.00000031   -0.00000019    0.00000000
     atom    6 type  1   force =     0.00000017    0.00000008    0.00000000
     atom    7 type  1   force =    -0.00000007    0.00000006    0.00000000
     atom    8 type  1   force =    -0.00000028    0.00000007    0.00000000
     atom    9 type  1   force =    -0.00000014    0.00000009    0.00000000
     atom   10 type  1   force =     0.00000015    0.00000006    0.00000000
     atom   11 type  1   force =     0.00000008    0.00000024    0.00000000
     atom   12 type  1   force =    -0.00000021    0.00000018    0.00000000
     atom   13 type  3   force =    -0.00000043    0.00000030    0.00000000
     atom   14 type  1   force =    -0.00000019    0.00000023    0.00000000
     atom   15 type  1   force =     0.00000007    0.00000022    0.00000000
     atom   16 type  1   force =     0.00000015    0.00000008    0.00000000
     atom   17 type  1   force =    -0.00000014    0.00000009    0.00000000
     atom   18 type  1   force =    -0.00000026    0.00000011    0.00000000
     atom   19 type  1   force =    -0.00000008    0.00000005    0.00000000
     atom   20 type  1   force =     0.00000017    0.00000006    0.00000000
     atom   21 type  1   force =     0.00000030   -0.00000017    0.00000000
     atom   22 type  1   force =     0.00000001   -0.00000017    0.00000000
     atom   23 type  1   force =    -0.00000019   -0.00000018    0.00000000
     atom   24 type  1   force =     0.00000000   -0.00000018    0.00000000
     atom   25 type  1   force =     0.00000033   -0.00000021    0.00000000
     atom   26 type  2   force =     0.00000044   -0.00000023    0.00000000
     atom   27 type  2   force =     0.00000011   -0.00000021    0.00000000
     atom   28 type  2   force =    -0.00000021   -0.00000019    0.00000000
     atom   29 type  2   force =    -0.00000007   -0.00000019    0.00000000
     atom   30 type  2   force =     0.00000031   -0.00000018    0.00000000
     atom   31 type  2   force =     0.00000021    0.00000017    0.00000000
     atom   32 type  2   force =    -0.00000009    0.00000011    0.00000000
     atom   33 type  3   force =    -0.00000030    0.00000017    0.00000000
     atom   34 type  2   force =    -0.00000016    0.00000014    0.00000000
     atom   35 type  2   force =     0.00000013    0.00000016    0.00000000
     atom   36 type  2   force =     0.00000010    0.00000032    0.00000000
     atom   37 type  2   force =    -0.00000022    0.00000027    0.00000000
     atom   38 type  2   force =    -0.00000044    0.00000031    0.00000000
     atom   39 type  3   force =    -0.00000026    0.00000024    0.00000000
     atom   40 type  2   force =     0.00000010    0.00000022    0.00000000
     atom   41 type  2   force =     0.00000027    0.00000005    0.00000000
     atom   42 type  2   force =    -0.00000010    0.00000006    0.00000000
     atom   43 type  2   force =    -0.00000036    0.00000006    0.00000000
     atom   44 type  2   force =    -0.00000022    0.00000004    0.00000000
     atom   45 type  2   force =     0.00000021   -0.00000006    0.00000000
     atom   46 type  2   force =     0.00000045   -0.00000027    0.00000000
     atom   47 type  2   force =     0.00000007   -0.00000026    0.00000000
     atom   48 type  2   force =    -0.00000023   -0.00000026    0.00000000
     atom   49 type  2   force =    -0.00000007   -0.00000026    0.00000000
     atom   50 type  2   force =     0.00000039   -0.00000028    0.00000000

     Total force =     0.000002     Total SCF correction =     0.000001
     SCF correction compared to forces is large: reduce conv_thr to get better values


     Computing stress (Cartesian axis) and pressure


     negative rho (up, down):  3.161E-03 0.000E+00
          total   stress  (Ry/bohr**3)                   (kbar)     P=       -0.18
   0.00000000  -0.00000000   0.00000000            0.00       -0.00        0.00
  -0.00000000   0.00000000   0.00000000           -0.00        0.00        0.00
   0.00000000   0.00000000  -0.00000359            0.00        0.00       -0.53


     Writing output data file ./TMP_DIR/hBN.save/
 
     init_run     :      6.98s CPU      7.49s WALL (       1 calls)
     electrons    :    450.65s CPU    469.02s WALL (       1 calls)
     forces       :      2.92s CPU      3.15s WALL (       1 calls)
     stress       :     10.33s CPU     10.47s WALL (       1 calls)

     Called by init_run:
     wfcinit      :      2.67s CPU      2.89s WALL (       1 calls)
     potinit      :      1.11s CPU      1.16s WALL (       1 calls)
     hinit0       :      1.80s CPU      1.83s WALL (       1 calls)

     Called by electrons:
     c_bands      :    430.51s CPU    438.75s WALL (      19 calls)
     sum_band     :     13.98s CPU     16.02s WALL (      19 calls)
     v_of_rho     :      2.60s CPU      2.97s WALL (      20 calls)
     newd         :      2.16s CPU      3.87s WALL (      20 calls)
     PAW_pot      :      0.77s CPU      0.83s WALL (      20 calls)
     mix_rho      :      0.53s CPU      0.60s WALL (      19 calls)

     Called by c_bands:
     init_us_2    :      0.94s CPU      0.96s WALL (     164 calls)
     ccgdiagg     :    403.06s CPU    409.41s WALL (      76 calls)
     wfcrot       :     29.17s CPU     30.05s WALL (      76 calls)

     Called by *cgdiagg:
     h_psi        :    215.94s CPU    219.43s WALL (   25244 calls)
     s_psi        :    110.60s CPU    112.47s WALL (   50412 calls)

     Called by h_psi:
     h_psi:calbec :     71.93s CPU     73.02s WALL (   25244 calls)
     vloc_psi     :     84.20s CPU     85.70s WALL (   25244 calls)
     add_vuspsi   :     58.83s CPU     59.79s WALL (   25244 calls)
     hs_1psi      :    247.36s CPU    251.23s WALL (   25168 calls)
     s_1psi       :    117.27s CPU    119.03s WALL (   25168 calls)

     General routines
     calbec       :    135.92s CPU    138.07s WALL (   50508 calls)
     fft          :      2.71s CPU      3.04s WALL (     283 calls)
     ffts         :      0.12s CPU      0.13s WALL (      39 calls)
     fftw         :     85.24s CPU     86.72s WALL (   78336 calls)
     interpolate  :      0.24s CPU      0.29s WALL (      20 calls)
 
     Parallel routines
 
     PWSCF        :   7m52.01s CPU   8m15.12s WALL

 
   This run was terminated on:  23: 1:16  29Nov2022            

=------------------------------------------------------------------------------=
   JOB DONE.
=------------------------------------------------------------------------------=
