
     Program PHONON v.6.8 starts on  1Dec2022 at 11:13:55 

     This program is part of the open-source Quantum ESPRESSO suite
     for quantum simulation of materials; please cite
         "P. Giannozzi et al., J. Phys.:Condens. Matter 21 395502 (2009);
         "P. Giannozzi et al., J. Phys.:Condens. Matter 29 465901 (2017);
         "P. Giannozzi et al., J. Chem. Phys. 152 154105 (2020);
          URL http://www.quantum-espresso.org", 
     in publications or presentations arising from this work. More details at
     http://www.quantum-espresso.org/quote

     Parallel version (MPI & OpenMP), running on      64 processor cores
     Number of MPI processes:                64
     Threads/MPI process:                     1

     MPI processes distributed on     2 nodes
     R & G space division:  proc/nbgrp/npool/nimage =      64
     100408 MiB available memory on the printing compute node when the environment starts
 
     Waiting for input...
     Reading input from standard input

     Reading xml data from directory:

     ./TMP_DIR/4/hBN.save/
     file N.pbe-n-kjpaw_psl.1.0.0.UPF: wavefunction(s)  2S renormalized
     file C.pbe-n-kjpaw_psl.1.0.0.UPF: wavefunction(s)  2S 2P renormalized

     IMPORTANT: XC functional enforced from input :
     Exchange-correlation= PBE
                           (   1   4   3   4   0   0   0)
     Any further DFT definition will be discarded
     Please, verify this is what you really want

 
     Parallelization info
     --------------------
     sticks:   dense  smooth     PW     G-vecs:    dense   smooth      PW
     Min         305     146     39                41099    13666    1887
     Max         306     147     40                41106    13675    1892
     Sum       19551    9379   2523              2630495   874849  120871
 
     Using Slab Decomposition
 
 ----2D----2D----2D----2D----2D----2D----2D----2D----2D----2D----2D----2D
  The code is running with the 2D cutoff
  Please refer to:
  Sohier, T., Calandra, M., & Mauri, F. (2017), 
  Density functional perturbation theory for gated two-dimensional heterostructu
 res:
  Theoretical developments and application to flexural phonons in graphene.
  Physical Review B, 96(7), 75448. https://doi.org/10.1103/PhysRevB.96.075448
 ----2D----2D----2D----2D----2D----2D----2D----2D----2D----2D----2D----2D

     negative rho (up, down):  3.161E-03 0.000E+00
     Reading collected, re-writing distributed wavefunctions

     Saving dvscf to file. Distribute only q points, not irreducible represetations.
        1 /   4 q-points for this run, from  4 to  4:
       N       xq(1)         xq(2)         xq(3) 
       1   0.000000000   0.000000000   0.000000000
       2  -0.000372209  -0.576140554   0.000000000
       3  -0.498767177  -0.288391018   0.000000000
       4  -0.499139386  -0.864531571   0.000000000
 

     Calculation of q =   -0.4991394  -0.8645316   0.0000000

     Bands found: reading from ./TMP_DIR/4/_ph0/hBN.q_4/

     Reading xml data from directory:

     ./TMP_DIR/4/_ph0/hBN.q_4/hBN.save/
     Message from routine qexsd_readschema :
     input info not found or not readable in xml file
     file N.pbe-n-kjpaw_psl.1.0.0.UPF: wavefunction(s)  2S renormalized
     file C.pbe-n-kjpaw_psl.1.0.0.UPF: wavefunction(s)  2S 2P renormalized

     IMPORTANT: XC functional enforced from input :
     Exchange-correlation= PBE
                           (   1   4   3   4   0   0   0)
     Any further DFT definition will be discarded
     Please, verify this is what you really want

 
     Parallelization info
     --------------------
     sticks:   dense  smooth     PW     G-vecs:    dense   smooth      PW
     Min         305     146     41                41099    13666    2077
     Max         306     147     42                41106    13675    2084
     Sum       19551    9379   2681              2630495   874849  133255
 
     Using Slab Decomposition
 
 ----2D----2D----2D----2D----2D----2D----2D----2D----2D----2D----2D----2D
  The code is running with the 2D cutoff
  Please refer to:
  Sohier, T., Calandra, M., & Mauri, F. (2017), 
  Density functional perturbation theory for gated two-dimensional heterostructu
 res:
  Theoretical developments and application to flexural phonons in graphene.
  Physical Review B, 96(7), 75448. https://doi.org/10.1103/PhysRevB.96.075448
 ----2D----2D----2D----2D----2D----2D----2D----2D----2D----2D----2D----2D

     negative rho (up, down):  3.161E-03 0.000E+00
     read_file_new: Wavefunctions not in collected format?!?
     read_file: Wavefunctions in collected format not available

     Restart in Phonon calculation

     Phonon dispersions for hBN                                                 

     bravais-lattice index     =            0
     lattice parameter (alat)  =      23.7646  a.u.
     unit-cell volume          =   13932.4750 (a.u.)^3
     number of atoms/cell      =           50
     number of atomic types    =            3
     kinetic-energy cut-off    =      60.0000  Ry
     charge density cut-off    =     500.0000  Ry
     convergence threshold     =      1.0E-16
     beta                      =       0.1000
     number of iterations used =            4
     Exchange-correlation= PBE
                           (   1   4   3   4   0   0   0)


     celldm(1)=   23.76464  celldm(2)=    0.00000  celldm(3)=    0.00000
     celldm(4)=    0.00000  celldm(5)=    0.00000  celldm(6)=    0.00000

     crystal axes: (cart. coord. in units of alat)
               a(1) = (  1.0028 -0.0006  0.0000 )  
               a(2) = ( -0.5020  0.8682  0.0000 )  
               a(3) = (  0.0000  0.0000  1.1928 )  

     reciprocal axes: (cart. coord. in units 2 pi/alat)
               b(1) = (  0.9975  0.5768  0.0000 )  
               b(2) = (  0.0007  1.1523  0.0000 )  
               b(3) = (  0.0000  0.0000  0.8384 )  


     Atoms inside the unit cell: 

     Cartesian axes

     site n.  atom      mass           positions (alat units)
        1     B   10.8110   tau(    1) = (   -0.00017    0.11526    0.59639  )
        2     B   10.8110   tau(    2) = (   -0.09993    0.28958    0.59639  )
        3     B   10.8110   tau(    3) = (   -0.20162    0.46322    0.59639  )
        4     B   10.8110   tau(    4) = (   -0.30166    0.63680    0.59639  )
        5     B   10.8110   tau(    5) = (   -0.40156    0.81019    0.59639  )
        6     B   10.8110   tau(    6) = (    0.20102    0.11408    0.59639  )
        7     B   10.8110   tau(    7) = (    0.10141    0.28589    0.59639  )
        8     B   10.8110   tau(    8) = (   -0.00211    0.46605    0.59639  )
        9     B   10.8110   tau(    9) = (   -0.10321    0.63794    0.59639  )
       10     B   10.8110   tau(   10) = (   -0.20145    0.81037    0.59639  )
       11     B   10.8110   tau(   11) = (    0.40100    0.11576    0.59639  )
       12     B   10.8110   tau(   12) = (    0.30019    0.28878    0.59639  )
       13     C   12.0107   tau(   13) = (    0.20189    0.46179    0.59639  )
       14     B   10.8110   tau(   14) = (    0.09620    0.63632    0.59639  )
       15     B   10.8110   tau(   15) = (   -0.00110    0.81052    0.59639  )
       16     B   10.8110   tau(   16) = (    0.60170    0.11526    0.59639  )
       17     B   10.8110   tau(   17) = (    0.50130    0.28892    0.59639  )
       18     B   10.8110   tau(   18) = (    0.40087    0.46316    0.59639  )
       19     B   10.8110   tau(   19) = (    0.30398    0.63675    0.59639  )
       20     B   10.8110   tau(   20) = (    0.20011    0.80927    0.59639  )
       21     B   10.8110   tau(   21) = (    0.80238    0.11509    0.59639  )
       22     B   10.8110   tau(   22) = (    0.70189    0.28880    0.59639  )
       23     B   10.8110   tau(   23) = (    0.60111    0.46236    0.59639  )
       24     B   10.8110   tau(   24) = (    0.50257    0.63639    0.59639  )
       25     B   10.8110   tau(   25) = (    0.40096    0.81004    0.59639  )
       26     N   14.0067   tau(   26) = (    0.10033    0.05745    0.59639  )
       27     N   14.0067   tau(   27) = (   -0.00002    0.23036    0.59639  )
       28     N   14.0067   tau(   28) = (   -0.10116    0.40581    0.59639  )
       29     N   14.0067   tau(   29) = (   -0.20232    0.57895    0.59639  )
       30     N   14.0067   tau(   30) = (   -0.30157    0.75246    0.59639  )
       31     N   14.0067   tau(   31) = (    0.30112    0.05741    0.59639  )
       32     N   14.0067   tau(   32) = (    0.20140    0.22910    0.59639  )
       33     C   12.0107   tau(   33) = (    0.10453    0.40638    0.59639  )
       34     N   14.0067   tau(   34) = (   -0.00447    0.58093    0.59639  )
       35     N   14.0067   tau(   35) = (   -0.10168    0.75326    0.59639  )
       36     N   14.0067   tau(   36) = (    0.50119    0.05808    0.59639  )
       37     N   14.0067   tau(   37) = (    0.40084    0.23170    0.59639  )
       38     N   14.0067   tau(   38) = (    0.29968    0.40533    0.59639  )
       39     C   12.0107   tau(   39) = (    0.20119    0.57381    0.59639  )
       40     N   14.0067   tau(   40) = (    0.09885    0.75222    0.59639  )
       41     N   14.0067   tau(   41) = (    0.70201    0.05706    0.59639  )
       42     N   14.0067   tau(   42) = (    0.60162    0.23100    0.59639  )
       43     N   14.0067   tau(   43) = (    0.50063    0.40454    0.59639  )
       44     N   14.0067   tau(   44) = (    0.40316    0.57855    0.59639  )
       45     N   14.0067   tau(   45) = (    0.30136    0.75236    0.59639  )
       46     N   14.0067   tau(   46) = (    0.90257    0.05725    0.59639  )
       47     N   14.0067   tau(   47) = (    0.80246    0.23103    0.59639  )
       48     N   14.0067   tau(   48) = (    0.70116    0.40444    0.59639  )
       49     N   14.0067   tau(   49) = (    0.60170    0.57804    0.59639  )
       50     N   14.0067   tau(   50) = (    0.50128    0.75191    0.59639  )

     Computing dynamical matrix for 
                    q = (  -0.4991394  -0.8645316   0.0000000 )
 
      3 Sym.Ops. (with q -> -q+G )


     G cutoff = 7152.7441  (  41101 G-vectors)     FFT grid: (180,180,216)
     G cutoff = 3433.3172  (  13668 G-vectors)  smooth grid: (120,120,144)

     number of k points=     8  Methfessel-Paxton smearing, width (Ry)=  0.0100

     PseudoPot. # 1 for B  read from file:
     ./pseudo/B.pbe-n-kjpaw_psl.1.0.0.UPF
     MD5 check sum: 8c825a5969375aca5c2c6ad5945b3059
     Pseudo is Projector augmented-wave + core cor, Zval =  3.0
     Generated using &quot;atomic&quot; code by A. Dal Corso  v.6.3
     Shape of augmentation charge: PSQ
     Using radial grid of 1059 points,  4 beta functions with: 
                l(1) =   0
                l(2) =   0
                l(3) =   1
                l(4) =   1
     Q(r) pseudized with 0 coefficients 


     PseudoPot. # 2 for N  read from file:
     ./pseudo/N.pbe-n-kjpaw_psl.1.0.0.UPF
     MD5 check sum: 14c48229446f9f2d411169a3abcbc3fa
     Pseudo is Projector augmented-wave + core cor, Zval =  5.0
     Generated using &quot;atomic&quot; code by A. Dal Corso  v.6.3
     Shape of augmentation charge: PSQ
     Using radial grid of 1085 points,  4 beta functions with: 
                l(1) =   0
                l(2) =   0
                l(3) =   1
                l(4) =   1
     Q(r) pseudized with 0 coefficients 


     PseudoPot. # 3 for C  read from file:
     ./pseudo/C.pbe-n-kjpaw_psl.1.0.0.UPF
     MD5 check sum: 5f16ad9a65e90284d1d834d4ab3b0f7d
     Pseudo is Projector augmented-wave + core cor, Zval =  4.0
     Generated using &quot;atomic&quot; code by A. Dal Corso  v.6.3
     Shape of augmentation charge: PSQ
     Using radial grid of 1073 points,  4 beta functions with: 
                l(1) =   0
                l(2) =   0
                l(3) =   1
                l(4) =   1
     Q(r) pseudized with 0 coefficients 


     Mode symmetry, C_s (m)     point group:


     Atomic displacements:
     There are  149 irreducible representations

     Representation     1      1 modes -  Done

     Representation     2      1 modes -  Done

     Representation     3      1 modes -  Done

     Representation     4      1 modes -  Done

     Representation     5      1 modes -  Done

     Representation     6      1 modes -  Done

     Representation     7      1 modes -  Done

     Representation     8      1 modes -  Done

     Representation     9      1 modes -  Done

     Representation    10      1 modes -  Done

     Representation    11      1 modes -  Done

     Representation    12      1 modes -  Done

     Representation    13      1 modes -  Done

     Representation    14      1 modes -  Done

     Representation    15      1 modes -  Done

     Representation    16      1 modes -  Done

     Representation    17      1 modes -  Done

     Representation    18      1 modes -  Done

     Representation    19      1 modes -  Done

     Representation    20      1 modes -  Done

     Representation    21      1 modes -  Done

     Representation    22      1 modes -  Done

     Representation    23      1 modes -  Done

     Representation    24      1 modes -  Done

     Representation    25      1 modes -  Done

     Representation    26      1 modes -  Done

     Representation    27      1 modes -  Done

     Representation    28      1 modes -  Done

     Representation    29      1 modes -  Done

     Representation    30      1 modes -  Done

     Representation    31      1 modes -  Done

     Representation    32      1 modes -  Done

     Representation    33      1 modes -  Done

     Representation    34      1 modes -  Done

     Representation    35      1 modes -  Done

     Representation    36      1 modes -  Done

     Representation    37      1 modes -  Done

     Representation    38      1 modes -  Done

     Representation    39      1 modes -  Done

     Representation    40      1 modes -  Done

     Representation    41      1 modes -  Done

     Representation    42      1 modes -  Done

     Representation    43      1 modes -  Done

     Representation    44      1 modes -  Done

     Representation    45      1 modes -  Done

     Representation    46      1 modes -  Done

     Representation    47      1 modes -  Done

     Representation    48      1 modes -  Done

     Representation    49      1 modes -  Done

     Representation    50      1 modes -  Done

     Representation    51      1 modes -  Done

     Representation    52      1 modes -  Done

     Representation    53      1 modes -  Done

     Representation    54      1 modes -  Done

     Representation    55      1 modes -  Done

     Representation    56      1 modes -  Done

     Representation    57      1 modes -  Done

     Representation    58      1 modes -  Done

     Representation    59      1 modes -  Done

     Representation    60      1 modes -  Done

     Representation    61      1 modes -  Done

     Representation    62      1 modes -  Done

     Representation    63      1 modes -  Done

     Representation    64      1 modes -  Done

     Representation    65      1 modes -  Done

     Representation    66      1 modes -  Done

     Representation    67      1 modes -  Done

     Representation    68      1 modes -  Done

     Representation    69      1 modes -  Done

     Representation    70      1 modes -  Done

     Representation    71      1 modes -  Done

     Representation    72      1 modes -  Done

     Representation    73      1 modes -  Done

     Representation    74      1 modes -  Done

     Representation    75      1 modes -  Done

     Representation    76      2 modes -  Done

     Representation    77      1 modes -  Done

     Representation    78      1 modes -  Done

     Representation    79      1 modes -  Done

     Representation    80      1 modes -  Done

     Representation    81      1 modes -  Done

     Representation    82      1 modes -  Done

     Representation    83      1 modes -  Done

     Representation    84      1 modes -  Done

     Representation    85      1 modes -  Done

     Representation    86      1 modes -  Done

     Representation    87      1 modes -  Done

     Representation    88      1 modes -  Done

     Representation    89      1 modes -  Done

     Representation    90      1 modes -  Done

     Representation    91      1 modes -  Done

     Representation    92      1 modes -  Done

     Representation    93      1 modes -  Done

     Representation    94      1 modes -  Done

     Representation    95      1 modes -  Done

     Representation    96      1 modes -  Done

     Representation    97      1 modes -  Done

     Representation    98      1 modes -  Done

     Representation    99      1 modes -  Done

     Representation   100      1 modes -  Done

     Representation   101      1 modes -  Done

     Representation   102      1 modes -  Done

     Representation   103      1 modes -  Done

     Representation   104      1 modes -  Done

     Representation   105      1 modes -  Done

     Representation   106      1 modes -  Done

     Representation   107      1 modes -  Done

     Representation   108      1 modes -  Done

     Representation   109      1 modes -  Done

     Representation   110      1 modes -  Done

     Representation   111      1 modes -  Done

     Representation   112      1 modes -  Done

     Representation   113      1 modes -  Done

     Representation   114      1 modes -  Done

     Representation   115      1 modes -  Done

     Representation   116      1 modes -  Done

     Representation   117      1 modes -  Done

     Representation   118      1 modes -  Done

     Representation   119      1 modes -  Done

     Representation   120      1 modes -  Done

     Representation   121      1 modes -  Done

     Representation   122      1 modes -  Done

     Representation   123      1 modes -  Done

     Representation   124      1 modes -  Done

     Representation   125      1 modes -  Done

     Representation   126      1 modes -  Done

     Representation   127      1 modes -  Done

     Representation   128      1 modes -  Done

     Representation   129      1 modes -  Done

     Representation   130      1 modes -  Done

     Representation   131      1 modes -  To be done

     Representation   132      1 modes -  To be done

     Representation   133      1 modes -  To be done

     Representation   134      1 modes -  To be done

     Representation   135      1 modes -  To be done

     Representation   136      1 modes -  To be done

     Representation   137      1 modes -  To be done

     Representation   138      1 modes -  To be done

     Representation   139      1 modes -  To be done

     Representation   140      1 modes -  To be done

     Representation   141      1 modes -  To be done

     Representation   142      1 modes -  To be done

     Representation   143      1 modes -  To be done

     Representation   144      1 modes -  To be done

     Representation   145      1 modes -  To be done

     Representation   146      1 modes -  To be done

     Representation   147      1 modes -  To be done

     Representation   148      1 modes -  To be done

     Representation   149      1 modes -  To be done


     PHONON       :   5m14.31s CPU   5m47.99s WALL



     Representation # 131 mode # 132

     Self-consistent Calculation

      iter #   7 total cpu time :   374.0 secs   av.it.:  10.0
      thresh= 4.518E-08 alpha_mix =  0.100 |ddv_scf|^2 =  1.025E-13

      iter #   8 total cpu time :   409.1 secs   av.it.:  15.0
      thresh= 3.202E-08 alpha_mix =  0.100 |ddv_scf|^2 =  2.744E-15

      iter #   9 total cpu time :   465.7 secs   av.it.:  13.0
      thresh= 5.238E-09 alpha_mix =  0.100 |ddv_scf|^2 =  1.858E-15

      iter #  10 total cpu time :   520.6 secs   av.it.:  15.0
      thresh= 4.310E-09 alpha_mix =  0.100 |ddv_scf|^2 =  2.183E-16

      iter #  11 total cpu time :   575.7 secs   av.it.:  14.5
      thresh= 1.477E-09 alpha_mix =  0.100 |ddv_scf|^2 =  7.050E-17

     End of self-consistent calculation

     Convergence has been achieved 


     Representation # 132 mode # 133

     Self-consistent Calculation

      iter #   1 total cpu time :   603.6 secs   av.it.:   3.0
      thresh= 1.000E-02 alpha_mix =  0.100 |ddv_scf|^2 =  4.166E-10

      iter #   2 total cpu time :   631.9 secs   av.it.:  12.0
      thresh= 2.041E-06 alpha_mix =  0.100 |ddv_scf|^2 =  2.778E-10

      iter #   3 total cpu time :   694.3 secs   av.it.:  13.2
      thresh= 1.667E-06 alpha_mix =  0.100 |ddv_scf|^2 =  3.624E-11

      iter #   4 total cpu time :   751.3 secs   av.it.:  12.0
      thresh= 6.020E-07 alpha_mix =  0.100 |ddv_scf|^2 =  2.235E-11

      iter #   5 total cpu time :   778.3 secs   av.it.:  13.5
      thresh= 4.727E-07 alpha_mix =  0.100 |ddv_scf|^2 =  9.178E-13

      iter #   6 total cpu time :   805.0 secs   av.it.:  14.0
      thresh= 9.580E-08 alpha_mix =  0.100 |ddv_scf|^2 =  3.430E-14

      iter #   7 total cpu time :   833.1 secs   av.it.:  14.0
      thresh= 1.852E-08 alpha_mix =  0.100 |ddv_scf|^2 =  1.190E-14

      iter #   8 total cpu time :   862.0 secs   av.it.:  15.0
      thresh= 1.091E-08 alpha_mix =  0.100 |ddv_scf|^2 =  4.389E-16

      iter #   9 total cpu time :   894.8 secs   av.it.:  13.0
      thresh= 2.095E-09 alpha_mix =  0.100 |ddv_scf|^2 =  2.869E-16

      iter #  10 total cpu time :   927.3 secs   av.it.:  15.0
      thresh= 1.694E-09 alpha_mix =  0.100 |ddv_scf|^2 =  9.906E-17

     End of self-consistent calculation

     Convergence has been achieved 


     Representation # 133 mode # 134

     Self-consistent Calculation

      iter #   1 total cpu time :   971.6 secs   av.it.:   3.0
      thresh= 1.000E-02 alpha_mix =  0.100 |ddv_scf|^2 =  4.235E-10

      iter #   2 total cpu time :  1034.9 secs   av.it.:  13.0
      thresh= 2.058E-06 alpha_mix =  0.100 |ddv_scf|^2 =  2.835E-10

      iter #   3 total cpu time :  1098.0 secs   av.it.:  14.0
      thresh= 1.684E-06 alpha_mix =  0.100 |ddv_scf|^2 =  3.759E-11

      iter #   4 total cpu time :  1124.7 secs   av.it.:  12.0
      thresh= 6.131E-07 alpha_mix =  0.100 |ddv_scf|^2 =  2.324E-11

      iter #   5 total cpu time :  1151.6 secs   av.it.:  14.0
      thresh= 4.821E-07 alpha_mix =  0.100 |ddv_scf|^2 =  9.419E-13

      iter #   6 total cpu time :  1184.1 secs   av.it.:  14.0
      thresh= 9.705E-08 alpha_mix =  0.100 |ddv_scf|^2 =  3.585E-14

      iter #   7 total cpu time :  1213.0 secs   av.it.:  14.0
      thresh= 1.893E-08 alpha_mix =  0.100 |ddv_scf|^2 =  1.141E-14

      iter #   8 total cpu time :  1251.2 secs   av.it.:  15.0
      thresh= 1.068E-08 alpha_mix =  0.100 |ddv_scf|^2 =  4.770E-16

      iter #   9 total cpu time :  1313.8 secs   av.it.:  14.0
      thresh= 2.184E-09 alpha_mix =  0.100 |ddv_scf|^2 =  2.964E-16

      iter #  10 total cpu time :  1342.9 secs   av.it.:  15.0
      thresh= 1.721E-09 alpha_mix =  0.100 |ddv_scf|^2 =  1.172E-16

      iter #  11 total cpu time :  1369.1 secs   av.it.:  14.0
      thresh= 1.083E-09 alpha_mix =  0.100 |ddv_scf|^2 =  6.637E-17

     End of self-consistent calculation

     Convergence has been achieved 


     Representation # 134 mode # 135

     Self-consistent Calculation

      iter #   1 total cpu time :  1393.1 secs   av.it.:   3.0
      thresh= 1.000E-02 alpha_mix =  0.100 |ddv_scf|^2 =  4.304E-10

      iter #   2 total cpu time :  1422.1 secs   av.it.:  12.5
      thresh= 2.075E-06 alpha_mix =  0.100 |ddv_scf|^2 =  2.884E-10

      iter #   3 total cpu time :  1494.8 secs   av.it.:  14.0
      thresh= 1.698E-06 alpha_mix =  0.100 |ddv_scf|^2 =  3.818E-11

      iter #   4 total cpu time :  1554.6 secs   av.it.:  12.0
      thresh= 6.179E-07 alpha_mix =  0.100 |ddv_scf|^2 =  2.429E-11

      iter #   5 total cpu time :  1624.9 secs   av.it.:  14.0
      thresh= 4.928E-07 alpha_mix =  0.100 |ddv_scf|^2 =  1.018E-12

      iter #   6 total cpu time :  1683.5 secs   av.it.:  14.0
      thresh= 1.009E-07 alpha_mix =  0.100 |ddv_scf|^2 =  3.351E-14

      iter #   7 total cpu time :  1727.6 secs   av.it.:  14.0
      thresh= 1.831E-08 alpha_mix =  0.100 |ddv_scf|^2 =  1.370E-14

      iter #   8 total cpu time :  1805.2 secs   av.it.:  15.0
      thresh= 1.170E-08 alpha_mix =  0.100 |ddv_scf|^2 =  4.106E-16

      iter #   9 total cpu time :  1917.7 secs   av.it.:  13.8
      thresh= 2.026E-09 alpha_mix =  0.100 |ddv_scf|^2 =  2.545E-16

      iter #  10 total cpu time :  2004.8 secs   av.it.:  15.0
      thresh= 1.595E-09 alpha_mix =  0.100 |ddv_scf|^2 =  1.034E-16

      iter #  11 total cpu time :  2074.3 secs   av.it.:  14.0
      thresh= 1.017E-09 alpha_mix =  0.100 |ddv_scf|^2 =  5.465E-17

     End of self-consistent calculation

     Convergence has been achieved 


     Representation # 135 mode # 136

     Self-consistent Calculation

      iter #   1 total cpu time :  2116.7 secs   av.it.:   3.5
      thresh= 1.000E-02 alpha_mix =  0.100 |ddv_scf|^2 =  5.018E-10

      iter #   2 total cpu time :  2157.0 secs   av.it.:  12.8
      thresh= 2.240E-06 alpha_mix =  0.100 |ddv_scf|^2 =  3.371E-10

      iter #   3 total cpu time :  2216.3 secs   av.it.:  14.0
      thresh= 1.836E-06 alpha_mix =  0.100 |ddv_scf|^2 =  4.783E-11

      iter #   4 total cpu time :  2268.1 secs   av.it.:  12.0
      thresh= 6.916E-07 alpha_mix =  0.100 |ddv_scf|^2 =  3.214E-11

      iter #   5 total cpu time :  2311.5 secs   av.it.:  14.0
      thresh= 5.669E-07 alpha_mix =  0.100 |ddv_scf|^2 =  1.224E-12

      iter #   6 total cpu time :  2350.0 secs   av.it.:  14.8
      thresh= 1.106E-07 alpha_mix =  0.100 |ddv_scf|^2 =  3.808E-14

      iter #   7 total cpu time :  2402.8 secs   av.it.:  14.0
      thresh= 1.951E-08 alpha_mix =  0.100 |ddv_scf|^2 =  1.477E-14

      iter #   8 total cpu time :  2431.5 secs   av.it.:  15.0
      thresh= 1.215E-08 alpha_mix =  0.100 |ddv_scf|^2 =  4.021E-16

      iter #   9 total cpu time :  2457.9 secs   av.it.:  14.0
      thresh= 2.005E-09 alpha_mix =  0.100 |ddv_scf|^2 =  2.085E-16

      iter #  10 total cpu time :  2486.0 secs   av.it.:  15.5
      thresh= 1.444E-09 alpha_mix =  0.100 |ddv_scf|^2 =  2.140E-17

     End of self-consistent calculation

     Convergence has been achieved 


     Representation # 136 mode # 137

     Self-consistent Calculation

      iter #   1 total cpu time :  2508.2 secs   av.it.:   5.0
      thresh= 1.000E-02 alpha_mix =  0.100 |ddv_scf|^2 =  2.483E-09

      iter #   2 total cpu time :  2536.0 secs   av.it.:  12.8
      thresh= 4.983E-06 alpha_mix =  0.100 |ddv_scf|^2 =  1.570E-09

      iter #   3 total cpu time :  2591.1 secs   av.it.:  14.0
      thresh= 3.962E-06 alpha_mix =  0.100 |ddv_scf|^2 =  1.589E-10

      iter #   4 total cpu time :  2649.2 secs   av.it.:  14.5
      thresh= 1.261E-06 alpha_mix =  0.100 |ddv_scf|^2 =  8.532E-11

      iter #   5 total cpu time :  2705.2 secs   av.it.:  13.2
      thresh= 9.237E-07 alpha_mix =  0.100 |ddv_scf|^2 =  1.038E-11

      iter #   6 total cpu time :  2764.0 secs   av.it.:  15.0
      thresh= 3.222E-07 alpha_mix =  0.100 |ddv_scf|^2 =  2.655E-13

      iter #   7 total cpu time :  2789.7 secs   av.it.:  13.0
      thresh= 5.152E-08 alpha_mix =  0.100 |ddv_scf|^2 =  1.340E-13

      iter #   8 total cpu time :  2817.2 secs   av.it.:  15.0
      thresh= 3.661E-08 alpha_mix =  0.100 |ddv_scf|^2 =  4.018E-15

      iter #   9 total cpu time :  2842.0 secs   av.it.:  13.0
      thresh= 6.339E-09 alpha_mix =  0.100 |ddv_scf|^2 =  2.859E-15

      iter #  10 total cpu time :  2869.4 secs   av.it.:  15.0
      thresh= 5.347E-09 alpha_mix =  0.100 |ddv_scf|^2 =  3.474E-16

      iter #  11 total cpu time :  2897.3 secs   av.it.:  15.0
      thresh= 1.864E-09 alpha_mix =  0.100 |ddv_scf|^2 =  3.524E-17

     End of self-consistent calculation

     Convergence has been achieved 


     Representation # 137 mode # 138

     Self-consistent Calculation

      iter #   1 total cpu time :  2917.0 secs   av.it.:   3.0
      thresh= 1.000E-02 alpha_mix =  0.100 |ddv_scf|^2 =  4.333E-10

      iter #   2 total cpu time :  2943.6 secs   av.it.:  12.5
      thresh= 2.081E-06 alpha_mix =  0.100 |ddv_scf|^2 =  2.899E-10

      iter #   3 total cpu time :  3001.0 secs   av.it.:  13.5
      thresh= 1.703E-06 alpha_mix =  0.100 |ddv_scf|^2 =  3.955E-11

      iter #   4 total cpu time :  3049.1 secs   av.it.:  12.0
      thresh= 6.289E-07 alpha_mix =  0.100 |ddv_scf|^2 =  2.550E-11

      iter #   5 total cpu time :  3106.3 secs   av.it.:  13.5
      thresh= 5.049E-07 alpha_mix =  0.100 |ddv_scf|^2 =  9.149E-13

      iter #   6 total cpu time :  3133.2 secs   av.it.:  14.0
      thresh= 9.565E-08 alpha_mix =  0.100 |ddv_scf|^2 =  4.226E-14

      iter #   7 total cpu time :  3159.4 secs   av.it.:  14.0
      thresh= 2.056E-08 alpha_mix =  0.100 |ddv_scf|^2 =  9.970E-15

      iter #   8 total cpu time :  3187.7 secs   av.it.:  15.0
      thresh= 9.985E-09 alpha_mix =  0.100 |ddv_scf|^2 =  3.181E-16

      iter #   9 total cpu time :  3214.4 secs   av.it.:  13.0
      thresh= 1.783E-09 alpha_mix =  0.100 |ddv_scf|^2 =  2.199E-16

      iter #  10 total cpu time :  3242.6 secs   av.it.:  15.0
      thresh= 1.483E-09 alpha_mix =  0.100 |ddv_scf|^2 =  4.810E-17

     End of self-consistent calculation

     Convergence has been achieved 


     Representation # 138 mode # 139

     Self-consistent Calculation

      iter #   1 total cpu time :  3276.3 secs   av.it.:   5.0
      thresh= 1.000E-02 alpha_mix =  0.100 |ddv_scf|^2 =  2.388E-09

      iter #   2 total cpu time :  3305.6 secs   av.it.:  13.0
      thresh= 4.886E-06 alpha_mix =  0.100 |ddv_scf|^2 =  1.501E-09

      iter #   3 total cpu time :  3366.7 secs   av.it.:  14.0
      thresh= 3.874E-06 alpha_mix =  0.100 |ddv_scf|^2 =  1.449E-10

      iter #   4 total cpu time :  3430.4 secs   av.it.:  14.8
      thresh= 1.204E-06 alpha_mix =  0.100 |ddv_scf|^2 =  7.724E-11

      iter #   5 total cpu time :  3456.7 secs   av.it.:  13.0
      thresh= 8.789E-07 alpha_mix =  0.100 |ddv_scf|^2 =  9.951E-12

      iter #   6 total cpu time :  3483.6 secs   av.it.:  14.5
      thresh= 3.155E-07 alpha_mix =  0.100 |ddv_scf|^2 =  2.604E-13

      iter #   7 total cpu time :  3510.0 secs   av.it.:  13.0
      thresh= 5.103E-08 alpha_mix =  0.100 |ddv_scf|^2 =  1.325E-13

      iter #   8 total cpu time :  3537.4 secs   av.it.:  15.0
      thresh= 3.639E-08 alpha_mix =  0.100 |ddv_scf|^2 =  3.346E-15

      iter #   9 total cpu time :  3564.7 secs   av.it.:  13.0
      thresh= 5.785E-09 alpha_mix =  0.100 |ddv_scf|^2 =  2.357E-15

      iter #  10 total cpu time :  3592.6 secs   av.it.:  15.0
      thresh= 4.854E-09 alpha_mix =  0.100 |ddv_scf|^2 =  2.499E-16

      iter #  11 total cpu time :  3620.9 secs   av.it.:  15.0
      thresh= 1.581E-09 alpha_mix =  0.100 |ddv_scf|^2 =  2.923E-17

     End of self-consistent calculation

     Convergence has been achieved 


     Representation # 139 mode # 140

     Self-consistent Calculation

      iter #   1 total cpu time :  3649.8 secs   av.it.:   3.0
      thresh= 1.000E-02 alpha_mix =  0.100 |ddv_scf|^2 =  4.270E-10

      iter #   2 total cpu time :  3677.9 secs   av.it.:  12.5
      thresh= 2.066E-06 alpha_mix =  0.100 |ddv_scf|^2 =  2.869E-10

      iter #   3 total cpu time :  3704.8 secs   av.it.:  13.5
      thresh= 1.694E-06 alpha_mix =  0.100 |ddv_scf|^2 =  3.852E-11

      iter #   4 total cpu time :  3734.5 secs   av.it.:  11.5
      thresh= 6.207E-07 alpha_mix =  0.100 |ddv_scf|^2 =  2.590E-11

      iter #   5 total cpu time :  3760.5 secs   av.it.:  13.5
      thresh= 5.089E-07 alpha_mix =  0.100 |ddv_scf|^2 =  9.736E-13

      iter #   6 total cpu time :  3787.4 secs   av.it.:  14.0
      thresh= 9.867E-08 alpha_mix =  0.100 |ddv_scf|^2 =  2.926E-14

      iter #   7 total cpu time :  3844.9 secs   av.it.:  14.0
      thresh= 1.711E-08 alpha_mix =  0.100 |ddv_scf|^2 =  1.128E-14

      iter #   8 total cpu time :  3907.3 secs   av.it.:  15.0
      thresh= 1.062E-08 alpha_mix =  0.100 |ddv_scf|^2 =  5.442E-16

      iter #   9 total cpu time :  3963.8 secs   av.it.:  14.0
      thresh= 2.333E-09 alpha_mix =  0.100 |ddv_scf|^2 =  2.700E-16

      iter #  10 total cpu time :  4022.1 secs   av.it.:  14.5
      thresh= 1.643E-09 alpha_mix =  0.100 |ddv_scf|^2 =  1.133E-16

      iter #  11 total cpu time :  4078.8 secs   av.it.:  14.0
      thresh= 1.064E-09 alpha_mix =  0.100 |ddv_scf|^2 =  5.194E-17

     End of self-consistent calculation

     Convergence has been achieved 


     Representation # 140 mode # 141

     Self-consistent Calculation

      iter #   1 total cpu time :  4119.0 secs   av.it.:   3.0
      thresh= 1.000E-02 alpha_mix =  0.100 |ddv_scf|^2 =  4.166E-10

      iter #   2 total cpu time :  4151.1 secs   av.it.:  12.0
      thresh= 2.041E-06 alpha_mix =  0.100 |ddv_scf|^2 =  2.778E-10

      iter #   3 total cpu time :  4212.1 secs   av.it.:  13.2
      thresh= 1.667E-06 alpha_mix =  0.100 |ddv_scf|^2 =  3.624E-11

      iter #   4 total cpu time :  4269.5 secs   av.it.:  12.0
      thresh= 6.020E-07 alpha_mix =  0.100 |ddv_scf|^2 =  2.235E-11

      iter #   5 total cpu time :  4320.1 secs   av.it.:  13.5
      thresh= 4.727E-07 alpha_mix =  0.100 |ddv_scf|^2 =  9.178E-13

      iter #   6 total cpu time :  4378.2 secs   av.it.:  14.0
      thresh= 9.580E-08 alpha_mix =  0.100 |ddv_scf|^2 =  3.431E-14

      iter #   7 total cpu time :  4427.4 secs   av.it.:  14.0
      thresh= 1.852E-08 alpha_mix =  0.100 |ddv_scf|^2 =  1.190E-14

      iter #   8 total cpu time :  4456.7 secs   av.it.:  15.0
      thresh= 1.091E-08 alpha_mix =  0.100 |ddv_scf|^2 =  4.389E-16

      iter #   9 total cpu time :  4486.9 secs   av.it.:  13.0
      thresh= 2.095E-09 alpha_mix =  0.100 |ddv_scf|^2 =  2.869E-16

      iter #  10 total cpu time :  4515.0 secs   av.it.:  15.0
      thresh= 1.694E-09 alpha_mix =  0.100 |ddv_scf|^2 =  9.907E-17

     End of self-consistent calculation

     Convergence has been achieved 


     Representation # 141 mode # 142

     Self-consistent Calculation

      iter #   1 total cpu time :  4540.0 secs   av.it.:   4.5
      thresh= 1.000E-02 alpha_mix =  0.100 |ddv_scf|^2 =  2.391E-09

      iter #   2 total cpu time :  4567.4 secs   av.it.:  13.0
      thresh= 4.890E-06 alpha_mix =  0.100 |ddv_scf|^2 =  1.511E-09

      iter #   3 total cpu time :  4625.1 secs   av.it.:  14.0
      thresh= 3.887E-06 alpha_mix =  0.100 |ddv_scf|^2 =  1.471E-10

      iter #   4 total cpu time :  4683.6 secs   av.it.:  14.2
      thresh= 1.213E-06 alpha_mix =  0.100 |ddv_scf|^2 =  6.921E-11

      iter #   5 total cpu time :  4738.6 secs   av.it.:  13.2
      thresh= 8.319E-07 alpha_mix =  0.100 |ddv_scf|^2 =  8.754E-12

      iter #   6 total cpu time :  4800.8 secs   av.it.:  15.0
      thresh= 2.959E-07 alpha_mix =  0.100 |ddv_scf|^2 =  1.954E-13

      iter #   7 total cpu time :  4859.7 secs   av.it.:  13.0
      thresh= 4.420E-08 alpha_mix =  0.100 |ddv_scf|^2 =  1.009E-13

      iter #   8 total cpu time :  4888.6 secs   av.it.:  15.0
      thresh= 3.177E-08 alpha_mix =  0.100 |ddv_scf|^2 =  2.649E-15

      iter #   9 total cpu time :  4913.3 secs   av.it.:  13.0
      thresh= 5.146E-09 alpha_mix =  0.100 |ddv_scf|^2 =  1.808E-15

      iter #  10 total cpu time :  4963.4 secs   av.it.:  15.0
      thresh= 4.252E-09 alpha_mix =  0.100 |ddv_scf|^2 =  2.157E-16

      iter #  11 total cpu time :  5016.0 secs   av.it.:  14.8
      thresh= 1.469E-09 alpha_mix =  0.100 |ddv_scf|^2 =  8.004E-17

     End of self-consistent calculation

     Convergence has been achieved 


     Representation # 142 mode # 143

     Self-consistent Calculation

      iter #   1 total cpu time :  5038.6 secs   av.it.:   3.2
      thresh= 1.000E-02 alpha_mix =  0.100 |ddv_scf|^2 =  4.817E-10

      iter #   2 total cpu time :  5066.3 secs   av.it.:  13.0
      thresh= 2.195E-06 alpha_mix =  0.100 |ddv_scf|^2 =  3.176E-10

      iter #   3 total cpu time :  5127.3 secs   av.it.:  14.0
      thresh= 1.782E-06 alpha_mix =  0.100 |ddv_scf|^2 =  4.324E-11

      iter #   4 total cpu time :  5181.7 secs   av.it.:  12.0
      thresh= 6.576E-07 alpha_mix =  0.100 |ddv_scf|^2 =  2.965E-11

      iter #   5 total cpu time :  5235.5 secs   av.it.:  14.0
      thresh= 5.446E-07 alpha_mix =  0.100 |ddv_scf|^2 =  1.170E-12

      iter #   6 total cpu time :  5295.7 secs   av.it.:  14.2
      thresh= 1.082E-07 alpha_mix =  0.100 |ddv_scf|^2 =  3.702E-14

      iter #   7 total cpu time :  5324.0 secs   av.it.:  14.0
      thresh= 1.924E-08 alpha_mix =  0.100 |ddv_scf|^2 =  1.447E-14

      iter #   8 total cpu time :  5351.6 secs   av.it.:  15.0
      thresh= 1.203E-08 alpha_mix =  0.100 |ddv_scf|^2 =  5.093E-16

      iter #   9 total cpu time :  5378.8 secs   av.it.:  14.0
      thresh= 2.257E-09 alpha_mix =  0.100 |ddv_scf|^2 =  2.734E-16

      iter #  10 total cpu time :  5406.1 secs   av.it.:  15.0
      thresh= 1.653E-09 alpha_mix =  0.100 |ddv_scf|^2 =  8.000E-17

     End of self-consistent calculation

     Convergence has been achieved 


     Representation # 143 mode # 144

     Self-consistent Calculation

      iter #   1 total cpu time :  5456.5 secs   av.it.:   4.0
      thresh= 1.000E-02 alpha_mix =  0.100 |ddv_scf|^2 =  2.399E-09

      iter #   2 total cpu time :  5480.7 secs   av.it.:  12.0
      thresh= 4.898E-06 alpha_mix =  0.100 |ddv_scf|^2 =  1.511E-09

      iter #   3 total cpu time :  5506.6 secs   av.it.:  14.0
      thresh= 3.887E-06 alpha_mix =  0.100 |ddv_scf|^2 =  1.456E-10

      iter #   4 total cpu time :  5532.9 secs   av.it.:  14.0
      thresh= 1.206E-06 alpha_mix =  0.100 |ddv_scf|^2 =  6.608E-11

      iter #   5 total cpu time :  5565.5 secs   av.it.:  13.0
      thresh= 8.129E-07 alpha_mix =  0.100 |ddv_scf|^2 =  9.344E-12

      iter #   6 total cpu time :  5615.0 secs   av.it.:  14.0
      thresh= 3.057E-07 alpha_mix =  0.100 |ddv_scf|^2 =  2.653E-13

      iter #   7 total cpu time :  5641.1 secs   av.it.:  13.0
      thresh= 5.150E-08 alpha_mix =  0.100 |ddv_scf|^2 =  1.478E-13

      iter #   8 total cpu time :  5675.9 secs   av.it.:  14.8
      thresh= 3.844E-08 alpha_mix =  0.100 |ddv_scf|^2 =  2.965E-15

      iter #   9 total cpu time :  5737.1 secs   av.it.:  12.5
      thresh= 5.446E-09 alpha_mix =  0.100 |ddv_scf|^2 =  2.142E-15

      iter #  10 total cpu time :  5817.9 secs   av.it.:  15.0
      thresh= 4.628E-09 alpha_mix =  0.100 |ddv_scf|^2 =  2.577E-16

      iter #  11 total cpu time :  5874.4 secs   av.it.:  13.5
      thresh= 1.605E-09 alpha_mix =  0.100 |ddv_scf|^2 =  1.304E-16

      iter #  12 total cpu time :  5924.4 secs   av.it.:  14.0
      thresh= 1.142E-09 alpha_mix =  0.100 |ddv_scf|^2 =  7.094E-17

     End of self-consistent calculation

     Convergence has been achieved 


     Representation # 144 mode # 145

     Self-consistent Calculation

      iter #   1 total cpu time :  5946.6 secs   av.it.:   3.5
      thresh= 1.000E-02 alpha_mix =  0.100 |ddv_scf|^2 =  5.018E-10

      iter #   2 total cpu time :  5973.7 secs   av.it.:  12.8
      thresh= 2.240E-06 alpha_mix =  0.100 |ddv_scf|^2 =  3.371E-10

      iter #   3 total cpu time :  6031.4 secs   av.it.:  14.0
      thresh= 1.836E-06 alpha_mix =  0.100 |ddv_scf|^2 =  4.783E-11

      iter #   4 total cpu time :  6085.8 secs   av.it.:  12.0
      thresh= 6.916E-07 alpha_mix =  0.100 |ddv_scf|^2 =  3.214E-11

      iter #   5 total cpu time :  6139.3 secs   av.it.:  14.0
      thresh= 5.669E-07 alpha_mix =  0.100 |ddv_scf|^2 =  1.224E-12

      iter #   6 total cpu time :  6167.3 secs   av.it.:  14.8
      thresh= 1.106E-07 alpha_mix =  0.100 |ddv_scf|^2 =  3.807E-14

      iter #   7 total cpu time :  6193.9 secs   av.it.:  14.0
      thresh= 1.951E-08 alpha_mix =  0.100 |ddv_scf|^2 =  1.477E-14

      iter #   8 total cpu time :  6222.5 secs   av.it.:  15.0
      thresh= 1.215E-08 alpha_mix =  0.100 |ddv_scf|^2 =  4.021E-16

      iter #   9 total cpu time :  6248.5 secs   av.it.:  14.0
      thresh= 2.005E-09 alpha_mix =  0.100 |ddv_scf|^2 =  2.085E-16

      iter #  10 total cpu time :  6301.6 secs   av.it.:  15.5
      thresh= 1.444E-09 alpha_mix =  0.100 |ddv_scf|^2 =  2.143E-17

     End of self-consistent calculation

     Convergence has been achieved 


     Representation # 145 mode # 146

     Self-consistent Calculation

      iter #   1 total cpu time :  6323.8 secs   av.it.:   3.0
      thresh= 1.000E-02 alpha_mix =  0.100 |ddv_scf|^2 =  4.395E-10

      iter #   2 total cpu time :  6350.1 secs   av.it.:  12.0
      thresh= 2.097E-06 alpha_mix =  0.100 |ddv_scf|^2 =  2.967E-10

      iter #   3 total cpu time :  6375.3 secs   av.it.:  13.5
      thresh= 1.723E-06 alpha_mix =  0.100 |ddv_scf|^2 =  4.102E-11

      iter #   4 total cpu time :  6398.6 secs   av.it.:  12.0
      thresh= 6.404E-07 alpha_mix =  0.100 |ddv_scf|^2 =  2.521E-11

      iter #   5 total cpu time :  6451.4 secs   av.it.:  13.0
      thresh= 5.021E-07 alpha_mix =  0.100 |ddv_scf|^2 =  9.097E-13

      iter #   6 total cpu time :  6508.8 secs   av.it.:  14.0
      thresh= 9.538E-08 alpha_mix =  0.100 |ddv_scf|^2 =  3.267E-14

      iter #   7 total cpu time :  6558.4 secs   av.it.:  14.0
      thresh= 1.808E-08 alpha_mix =  0.100 |ddv_scf|^2 =  1.013E-14

      iter #   8 total cpu time :  6587.0 secs   av.it.:  15.0
      thresh= 1.007E-08 alpha_mix =  0.100 |ddv_scf|^2 =  4.169E-16

      iter #   9 total cpu time :  6611.7 secs   av.it.:  13.0
      thresh= 2.042E-09 alpha_mix =  0.100 |ddv_scf|^2 =  2.841E-16

      iter #  10 total cpu time :  6669.3 secs   av.it.:  15.0
      thresh= 1.686E-09 alpha_mix =  0.100 |ddv_scf|^2 =  9.007E-17

     End of self-consistent calculation

     Convergence has been achieved 


     Representation # 146 mode # 147

     Self-consistent Calculation

      iter #   1 total cpu time :  6692.6 secs   av.it.:   4.0
      thresh= 1.000E-02 alpha_mix =  0.100 |ddv_scf|^2 =  4.832E-08

      iter #   2 total cpu time :  6726.6 secs   av.it.:  11.0
      thresh= 2.198E-05 alpha_mix =  0.100 |ddv_scf|^2 =  1.028E-06

      iter #   3 total cpu time :  6745.1 secs   av.it.:   8.5
      thresh= 1.014E-04 alpha_mix =  0.100 |ddv_scf|^2 =  1.777E-09

      iter #   4 total cpu time :  6768.5 secs   av.it.:  12.0
      thresh= 4.216E-06 alpha_mix =  0.100 |ddv_scf|^2 =  6.568E-10

      iter #   5 total cpu time :  6795.0 secs   av.it.:  13.0
      thresh= 2.563E-06 alpha_mix =  0.100 |ddv_scf|^2 =  4.361E-11

      iter #   6 total cpu time :  6820.9 secs   av.it.:  14.0
      thresh= 6.604E-07 alpha_mix =  0.100 |ddv_scf|^2 =  2.995E-12

      iter #   7 total cpu time :  6845.9 secs   av.it.:  13.0
      thresh= 1.731E-07 alpha_mix =  0.100 |ddv_scf|^2 =  1.007E-12

      iter #   8 total cpu time :  6873.6 secs   av.it.:  15.0
      thresh= 1.003E-07 alpha_mix =  0.100 |ddv_scf|^2 =  9.360E-14

      iter #   9 total cpu time :  6900.2 secs   av.it.:  14.0
      thresh= 3.059E-08 alpha_mix =  0.100 |ddv_scf|^2 =  1.280E-13

      iter #  10 total cpu time :  6924.6 secs   av.it.:  13.0
      thresh= 3.577E-08 alpha_mix =  0.100 |ddv_scf|^2 =  4.711E-14

      iter #  11 total cpu time :  6981.3 secs   av.it.:  14.0
      thresh= 2.170E-08 alpha_mix =  0.100 |ddv_scf|^2 =  6.668E-14

      iter #  12 total cpu time :  7008.7 secs   av.it.:  14.0
      thresh= 2.582E-08 alpha_mix =  0.100 |ddv_scf|^2 =  1.436E-15

      iter #  13 total cpu time :  7034.6 secs   av.it.:  14.0
      thresh= 3.789E-09 alpha_mix =  0.100 |ddv_scf|^2 =  9.617E-16

      iter #  14 total cpu time :  7061.6 secs   av.it.:  14.0
      thresh= 3.101E-09 alpha_mix =  0.100 |ddv_scf|^2 =  3.272E-16

      iter #  15 total cpu time :  7087.4 secs   av.it.:  15.0
      thresh= 1.809E-09 alpha_mix =  0.100 |ddv_scf|^2 =  1.036E-16

      iter #  16 total cpu time :  7113.1 secs   av.it.:  13.8
      thresh= 1.018E-09 alpha_mix =  0.100 |ddv_scf|^2 =  6.612E-17

     End of self-consistent calculation

     Convergence has been achieved 


     Representation # 147 mode # 148

     Self-consistent Calculation

      iter #   1 total cpu time :  7135.3 secs   av.it.:   5.0
      thresh= 1.000E-02 alpha_mix =  0.100 |ddv_scf|^2 =  2.436E-09

      iter #   2 total cpu time :  7191.4 secs   av.it.:  13.0
      thresh= 4.936E-06 alpha_mix =  0.100 |ddv_scf|^2 =  1.531E-09

      iter #   3 total cpu time :  7242.9 secs   av.it.:  14.0
      thresh= 3.912E-06 alpha_mix =  0.100 |ddv_scf|^2 =  1.545E-10

      iter #   4 total cpu time :  7293.1 secs   av.it.:  14.2
      thresh= 1.243E-06 alpha_mix =  0.100 |ddv_scf|^2 =  6.563E-11

      iter #   5 total cpu time :  7318.8 secs   av.it.:  13.2
      thresh= 8.101E-07 alpha_mix =  0.100 |ddv_scf|^2 =  9.095E-12

      iter #   6 total cpu time :  7345.7 secs   av.it.:  15.0
      thresh= 3.016E-07 alpha_mix =  0.100 |ddv_scf|^2 =  2.294E-13

      iter #   7 total cpu time :  7372.0 secs   av.it.:  13.2
      thresh= 4.790E-08 alpha_mix =  0.100 |ddv_scf|^2 =  1.262E-13

      iter #   8 total cpu time :  7399.7 secs   av.it.:  15.0
      thresh= 3.553E-08 alpha_mix =  0.100 |ddv_scf|^2 =  3.329E-15

      iter #   9 total cpu time :  7425.6 secs   av.it.:  13.0
      thresh= 5.769E-09 alpha_mix =  0.100 |ddv_scf|^2 =  2.308E-15

      iter #  10 total cpu time :  7452.7 secs   av.it.:  15.0
      thresh= 4.804E-09 alpha_mix =  0.100 |ddv_scf|^2 =  5.544E-16

      iter #  11 total cpu time :  7510.3 secs   av.it.:  14.0
      thresh= 2.355E-09 alpha_mix =  0.100 |ddv_scf|^2 =  2.640E-16

      iter #  12 total cpu time :  7538.8 secs   av.it.:  14.0
      thresh= 1.625E-09 alpha_mix =  0.100 |ddv_scf|^2 =  1.264E-16

      iter #  13 total cpu time :  7563.5 secs   av.it.:  13.0
      thresh= 1.124E-09 alpha_mix =  0.100 |ddv_scf|^2 =  8.859E-17

     End of self-consistent calculation

     Convergence has been achieved 


     Representation # 148 mode # 149

     Self-consistent Calculation

      iter #   1 total cpu time :  7586.4 secs   av.it.:   4.0
      thresh= 1.000E-02 alpha_mix =  0.100 |ddv_scf|^2 =  2.402E-09

      iter #   2 total cpu time :  7612.7 secs   av.it.:  12.5
      thresh= 4.901E-06 alpha_mix =  0.100 |ddv_scf|^2 =  1.501E-09

      iter #   3 total cpu time :  7661.2 secs   av.it.:  14.0
      thresh= 3.874E-06 alpha_mix =  0.100 |ddv_scf|^2 =  1.516E-10

      iter #   4 total cpu time :  7689.0 secs   av.it.:  14.0
      thresh= 1.231E-06 alpha_mix =  0.100 |ddv_scf|^2 =  7.491E-11

      iter #   5 total cpu time :  7721.3 secs   av.it.:  13.0
      thresh= 8.655E-07 alpha_mix =  0.100 |ddv_scf|^2 =  9.483E-12

      iter #   6 total cpu time :  7749.4 secs   av.it.:  14.5
      thresh= 3.079E-07 alpha_mix =  0.100 |ddv_scf|^2 =  2.347E-13

      iter #   7 total cpu time :  7774.9 secs   av.it.:  13.5
      thresh= 4.845E-08 alpha_mix =  0.100 |ddv_scf|^2 =  1.200E-13

      iter #   8 total cpu time :  7803.7 secs   av.it.:  15.0
      thresh= 3.464E-08 alpha_mix =  0.100 |ddv_scf|^2 =  4.209E-15

      iter #   9 total cpu time :  7828.0 secs   av.it.:  12.8
      thresh= 6.488E-09 alpha_mix =  0.100 |ddv_scf|^2 =  3.001E-15

      iter #  10 total cpu time :  7885.0 secs   av.it.:  15.0
      thresh= 5.478E-09 alpha_mix =  0.100 |ddv_scf|^2 =  4.396E-16

      iter #  11 total cpu time :  7943.9 secs   av.it.:  13.5
      thresh= 2.097E-09 alpha_mix =  0.100 |ddv_scf|^2 =  2.168E-16

      iter #  12 total cpu time :  8000.9 secs   av.it.:  14.0
      thresh= 1.472E-09 alpha_mix =  0.100 |ddv_scf|^2 =  1.082E-16

      iter #  13 total cpu time :  8048.9 secs   av.it.:  13.0
      thresh= 1.040E-09 alpha_mix =  0.100 |ddv_scf|^2 =  7.197E-17

     End of self-consistent calculation

     Convergence has been achieved 


     Representation # 149 mode # 150

     Self-consistent Calculation

      iter #   1 total cpu time :  8102.9 secs   av.it.:   3.2
      thresh= 1.000E-02 alpha_mix =  0.100 |ddv_scf|^2 =  4.817E-10

      iter #   2 total cpu time :  8130.5 secs   av.it.:  13.0
      thresh= 2.195E-06 alpha_mix =  0.100 |ddv_scf|^2 =  3.176E-10

      iter #   3 total cpu time :  8191.5 secs   av.it.:  14.0
      thresh= 1.782E-06 alpha_mix =  0.100 |ddv_scf|^2 =  4.324E-11

      iter #   4 total cpu time :  8245.4 secs   av.it.:  12.0
      thresh= 6.576E-07 alpha_mix =  0.100 |ddv_scf|^2 =  2.965E-11

      iter #   5 total cpu time :  8303.0 secs   av.it.:  14.0
      thresh= 5.446E-07 alpha_mix =  0.100 |ddv_scf|^2 =  1.170E-12

      iter #   6 total cpu time :  8360.4 secs   av.it.:  14.2
      thresh= 1.082E-07 alpha_mix =  0.100 |ddv_scf|^2 =  3.702E-14

      iter #   7 total cpu time :  8421.8 secs   av.it.:  14.0
      thresh= 1.924E-08 alpha_mix =  0.100 |ddv_scf|^2 =  1.447E-14

      iter #   8 total cpu time :  8480.7 secs   av.it.:  15.0
      thresh= 1.203E-08 alpha_mix =  0.100 |ddv_scf|^2 =  5.093E-16

      iter #   9 total cpu time :  8507.9 secs   av.it.:  14.0
      thresh= 2.257E-09 alpha_mix =  0.100 |ddv_scf|^2 =  2.734E-16

      iter #  10 total cpu time :  8535.5 secs   av.it.:  15.0
      thresh= 1.653E-09 alpha_mix =  0.100 |ddv_scf|^2 =  8.000E-17

     End of self-consistent calculation

     Convergence has been achieved 
 
     Number of q in the star =    1
     List of q in the star:
          1  -0.499139386  -0.864531571   0.000000000

     Diagonalizing the dynamical matrix

     q = (   -0.499139386  -0.864531571   0.000000000 ) 

 **************************************************************************
     freq (    1) =       0.709397 [THz] =      23.662933 [cm-1]
     freq (    2) =       1.289061 [THz] =      42.998451 [cm-1]
     freq (    3) =       1.927535 [THz] =      64.295648 [cm-1]
     freq (    4) =       2.008805 [THz] =      67.006508 [cm-1]
     freq (    5) =       3.732494 [THz] =     124.502599 [cm-1]
     freq (    6) =       3.770039 [THz] =     125.754980 [cm-1]
     freq (    7) =       3.847593 [THz] =     128.341898 [cm-1]
     freq (    8) =       3.877636 [THz] =     129.344027 [cm-1]
     freq (    9) =       4.892035 [THz] =     163.180721 [cm-1]
     freq (   10) =       4.913864 [THz] =     163.908866 [cm-1]
     freq (   11) =       5.366408 [THz] =     179.004110 [cm-1]
     freq (   12) =       5.489053 [THz] =     183.095093 [cm-1]
     freq (   13) =       6.285207 [THz] =     209.651936 [cm-1]
     freq (   14) =       6.405450 [THz] =     213.662805 [cm-1]
     freq (   15) =       6.492244 [THz] =     216.557940 [cm-1]
     freq (   16) =       6.656842 [THz] =     222.048356 [cm-1]
     freq (   17) =       7.899697 [THz] =     263.505515 [cm-1]
     freq (   18) =       7.986363 [THz] =     266.396388 [cm-1]
     freq (   19) =       8.118204 [THz] =     270.794153 [cm-1]
     freq (   20) =       8.261731 [THz] =     275.581680 [cm-1]
     freq (   21) =       8.550659 [THz] =     285.219283 [cm-1]
     freq (   22) =       8.785759 [THz] =     293.061376 [cm-1]
     freq (   23) =       8.797485 [THz] =     293.452510 [cm-1]
     freq (   24) =       8.840404 [THz] =     294.884149 [cm-1]
     freq (   25) =       8.937479 [THz] =     298.122225 [cm-1]
     freq (   26) =       8.937735 [THz] =     298.130748 [cm-1]
     freq (   27) =       9.141987 [THz] =     304.943859 [cm-1]
     freq (   28) =       9.528025 [THz] =     317.820700 [cm-1]
     freq (   29) =       9.554476 [THz] =     318.703012 [cm-1]
     freq (   30) =       9.625928 [THz] =     321.086385 [cm-1]
     freq (   31) =       9.738049 [THz] =     324.826342 [cm-1]
     freq (   32) =      13.458369 [THz] =     448.922884 [cm-1]
     freq (   33) =      13.615761 [THz] =     454.172890 [cm-1]
     freq (   34) =      13.705300 [THz] =     457.159608 [cm-1]
     freq (   35) =      13.722875 [THz] =     457.745830 [cm-1]
     freq (   36) =      13.838619 [THz] =     461.606634 [cm-1]
     freq (   37) =      13.928968 [THz] =     464.620371 [cm-1]
     freq (   38) =      14.649251 [THz] =     488.646411 [cm-1]
     freq (   39) =      14.811550 [THz] =     494.060114 [cm-1]
     freq (   40) =      16.320218 [THz] =     544.383868 [cm-1]
     freq (   41) =      16.498402 [THz] =     550.327452 [cm-1]
     freq (   42) =      16.559473 [THz] =     552.364572 [cm-1]
     freq (   43) =      16.680973 [THz] =     556.417360 [cm-1]
     freq (   44) =      16.857677 [THz] =     562.311578 [cm-1]
     freq (   45) =      16.892448 [THz] =     563.471406 [cm-1]
     freq (   46) =      17.268415 [THz] =     576.012335 [cm-1]
     freq (   47) =      17.849762 [THz] =     595.403980 [cm-1]
     freq (   48) =      17.945439 [THz] =     598.595402 [cm-1]
     freq (   49) =      18.099215 [THz] =     603.724823 [cm-1]
     freq (   50) =      18.249864 [THz] =     608.749952 [cm-1]
     freq (   51) =      18.301227 [THz] =     610.463211 [cm-1]
     freq (   52) =      18.397075 [THz] =     613.660367 [cm-1]
     freq (   53) =      18.675636 [THz] =     622.952151 [cm-1]
     freq (   54) =      18.979370 [THz] =     633.083632 [cm-1]
     freq (   55) =      18.992121 [THz] =     633.508956 [cm-1]
     freq (   56) =      19.029753 [THz] =     634.764228 [cm-1]
     freq (   57) =      19.089664 [THz] =     636.762662 [cm-1]
     freq (   58) =      19.107400 [THz] =     637.354243 [cm-1]
     freq (   59) =      19.183690 [THz] =     639.899009 [cm-1]
     freq (   60) =      20.089732 [THz] =     670.121338 [cm-1]
     freq (   61) =      20.373774 [THz] =     679.595953 [cm-1]
     freq (   62) =      20.416251 [THz] =     681.012833 [cm-1]
     freq (   63) =      20.527123 [THz] =     684.711106 [cm-1]
     freq (   64) =      21.147832 [THz] =     705.415745 [cm-1]
     freq (   65) =      21.189940 [THz] =     706.820332 [cm-1]
     freq (   66) =      21.204034 [THz] =     707.290439 [cm-1]
     freq (   67) =      21.261648 [THz] =     709.212244 [cm-1]
     freq (   68) =      21.332996 [THz] =     711.592154 [cm-1]
     freq (   69) =      21.386849 [THz] =     713.388485 [cm-1]
     freq (   70) =      21.395850 [THz] =     713.688720 [cm-1]
     freq (   71) =      21.482753 [THz] =     716.587493 [cm-1]
     freq (   72) =      21.532439 [THz] =     718.244851 [cm-1]
     freq (   73) =      21.722057 [THz] =     724.569837 [cm-1]
     freq (   74) =      21.922913 [THz] =     731.269667 [cm-1]
     freq (   75) =      21.925875 [THz] =     731.368449 [cm-1]
     freq (   76) =      21.961222 [THz] =     732.547517 [cm-1]
     freq (   77) =      22.230057 [THz] =     741.514891 [cm-1]
     freq (   78) =      23.045529 [THz] =     768.716093 [cm-1]
     freq (   79) =      23.163906 [THz] =     772.664731 [cm-1]
     freq (   80) =      23.620284 [THz] =     787.887866 [cm-1]
     freq (   81) =      23.906461 [THz] =     797.433700 [cm-1]
     freq (   82) =      24.254998 [THz] =     809.059650 [cm-1]
     freq (   83) =      24.728668 [THz] =     824.859589 [cm-1]
     freq (   84) =      25.105824 [THz] =     837.440151 [cm-1]
     freq (   85) =      25.165286 [THz] =     839.423602 [cm-1]
     freq (   86) =      27.282057 [THz] =     910.031477 [cm-1]
     freq (   87) =      27.439526 [THz] =     915.284063 [cm-1]
     freq (   88) =      27.742052 [THz] =     925.375233 [cm-1]
     freq (   89) =      27.969768 [THz] =     932.971021 [cm-1]
     freq (   90) =      29.362125 [THz] =     979.415053 [cm-1]
     freq (   91) =      29.448511 [THz] =     982.296609 [cm-1]
     freq (   92) =      29.722264 [THz] =     991.428019 [cm-1]
     freq (   93) =      30.023307 [THz] =    1001.469712 [cm-1]
     freq (   94) =      30.922680 [THz] =    1031.469562 [cm-1]
     freq (   95) =      31.201537 [THz] =    1040.771256 [cm-1]
     freq (   96) =      32.508960 [THz] =    1084.382188 [cm-1]
     freq (   97) =      32.600296 [THz] =    1087.428811 [cm-1]
     freq (   98) =      32.725718 [THz] =    1091.612467 [cm-1]
     freq (   99) =      33.076733 [THz] =    1103.321054 [cm-1]
     freq (  100) =      34.284285 [THz] =    1143.600660 [cm-1]
     freq (  101) =      35.303430 [THz] =    1177.595665 [cm-1]
     freq (  102) =      35.535593 [THz] =    1185.339778 [cm-1]
     freq (  103) =      36.607674 [THz] =    1221.100564 [cm-1]
     freq (  104) =      36.757287 [THz] =    1226.091116 [cm-1]
     freq (  105) =      36.859993 [THz] =    1229.517033 [cm-1]
     freq (  106) =      36.892186 [THz] =    1230.590851 [cm-1]
     freq (  107) =      36.930330 [THz] =    1231.863209 [cm-1]
     freq (  108) =      36.995266 [THz] =    1234.029254 [cm-1]
     freq (  109) =      37.108192 [THz] =    1237.796039 [cm-1]
     freq (  110) =      37.210752 [THz] =    1241.217091 [cm-1]
     freq (  111) =      37.363925 [THz] =    1246.326387 [cm-1]
     freq (  112) =      37.463150 [THz] =    1249.636188 [cm-1]
     freq (  113) =      37.542727 [THz] =    1252.290579 [cm-1]
     freq (  114) =      37.592715 [THz] =    1253.958006 [cm-1]
     freq (  115) =      37.632073 [THz] =    1255.270830 [cm-1]
     freq (  116) =      37.728312 [THz] =    1258.481031 [cm-1]
     freq (  117) =      37.816663 [THz] =    1261.428104 [cm-1]
     freq (  118) =      37.846016 [THz] =    1262.407208 [cm-1]
     freq (  119) =      37.912680 [THz] =    1264.630871 [cm-1]
     freq (  120) =      37.994505 [THz] =    1267.360273 [cm-1]
     freq (  121) =      38.233110 [THz] =    1275.319287 [cm-1]
     freq (  122) =      38.273081 [THz] =    1276.652559 [cm-1]
     freq (  123) =      38.497384 [THz] =    1284.134498 [cm-1]
     freq (  124) =      38.525771 [THz] =    1285.081410 [cm-1]
     freq (  125) =      38.600687 [THz] =    1287.580311 [cm-1]
     freq (  126) =      38.612788 [THz] =    1287.983953 [cm-1]
     freq (  127) =      38.784872 [THz] =    1293.724078 [cm-1]
     freq (  128) =      38.791030 [THz] =    1293.929470 [cm-1]
     freq (  129) =      38.944855 [THz] =    1299.060536 [cm-1]
     freq (  130) =      39.171523 [THz] =    1306.621363 [cm-1]
     freq (  131) =      39.237743 [THz] =    1308.830222 [cm-1]
     freq (  132) =      39.511259 [THz] =    1317.953726 [cm-1]
     freq (  133) =      39.711374 [THz] =    1324.628844 [cm-1]
     freq (  134) =      39.898191 [THz] =    1330.860401 [cm-1]
     freq (  135) =      40.368297 [THz] =    1346.541457 [cm-1]
     freq (  136) =      40.773622 [THz] =    1360.061632 [cm-1]
     freq (  137) =      40.923536 [THz] =    1365.062223 [cm-1]
     freq (  138) =      41.539606 [THz] =    1385.612099 [cm-1]
     freq (  139) =      41.597401 [THz] =    1387.539949 [cm-1]
     freq (  140) =      41.990770 [THz] =    1400.661305 [cm-1]
     freq (  141) =      42.390225 [THz] =    1413.985699 [cm-1]
     freq (  142) =      43.171473 [THz] =    1440.045334 [cm-1]
     freq (  143) =      43.354781 [THz] =    1446.159814 [cm-1]
     freq (  144) =      43.503498 [THz] =    1451.120509 [cm-1]
     freq (  145) =      43.647053 [THz] =    1455.908969 [cm-1]
     freq (  146) =      43.961668 [THz] =    1466.403414 [cm-1]
     freq (  147) =      43.965548 [THz] =    1466.532824 [cm-1]
     freq (  148) =      44.654024 [THz] =    1489.497899 [cm-1]
     freq (  149) =      44.676328 [THz] =    1490.241885 [cm-1]
     freq (  150) =      44.788153 [THz] =    1493.971984 [cm-1]
 **************************************************************************

     Mode symmetry, C_s (m)     point group:

     freq (   1-   1) =         23.7  [cm-1]   --> A''                
     freq (   2-   2) =         43.0  [cm-1]   --> A''                
     freq (   3-   3) =         64.3  [cm-1]   --> A''                
     freq (   4-   4) =         67.0  [cm-1]   --> A''                
     freq (   5-   5) =        124.5  [cm-1]   --> A''                
     freq (   6-   6) =        125.8  [cm-1]   --> A''                
     freq (   7-   7) =        128.3  [cm-1]   --> A''                
     freq (   8-   8) =        129.3  [cm-1]   --> A''                
     freq (   9-   9) =        163.2  [cm-1]   --> A''                
     freq (  10-  10) =        163.9  [cm-1]   --> A''                
     freq (  11-  11) =        179.0  [cm-1]   --> A'                 
     freq (  12-  12) =        183.1  [cm-1]   --> A'                 
     freq (  13-  13) =        209.7  [cm-1]   --> A''                
     freq (  14-  14) =        213.7  [cm-1]   --> A''                
     freq (  15-  15) =        216.6  [cm-1]   --> A''                
     freq (  16-  16) =        222.0  [cm-1]   --> A''                
     freq (  17-  17) =        263.5  [cm-1]   --> A''                
     freq (  18-  18) =        266.4  [cm-1]   --> A''                
     freq (  19-  19) =        270.8  [cm-1]   --> A''                
     freq (  20-  20) =        275.6  [cm-1]   --> A''                
     freq (  21-  21) =        285.2  [cm-1]   --> A''                
     freq (  22-  22) =        293.1  [cm-1]   --> A'                 
     freq (  23-  23) =        293.5  [cm-1]   --> A''                
     freq (  24-  24) =        294.9  [cm-1]   --> A''                
     freq (  25-  25) =        298.1  [cm-1]   --> A'                 
     freq (  26-  26) =        298.1  [cm-1]   --> A''                
     freq (  27-  27) =        304.9  [cm-1]   --> A''                
     freq (  28-  28) =        317.8  [cm-1]   --> A'                 
     freq (  29-  29) =        318.7  [cm-1]   --> A''                
     freq (  30-  30) =        321.1  [cm-1]   --> A'                 
     freq (  31-  31) =        324.8  [cm-1]   --> A''                
     freq (  32-  32) =        448.9  [cm-1]   --> A'                 
     freq (  33-  33) =        454.2  [cm-1]   --> A'                 
     freq (  34-  34) =        457.2  [cm-1]   --> A'                 
     freq (  35-  35) =        457.7  [cm-1]   --> A'                 
     freq (  36-  36) =        461.6  [cm-1]   --> A'                 
     freq (  37-  37) =        464.6  [cm-1]   --> A'                 
     freq (  38-  38) =        488.6  [cm-1]   --> A'                 
     freq (  39-  39) =        494.1  [cm-1]   --> A'                 
     freq (  40-  40) =        544.4  [cm-1]   --> A'                 
     freq (  41-  41) =        550.3  [cm-1]   --> A'                 
     freq (  42-  42) =        552.4  [cm-1]   --> A'                 
     freq (  43-  43) =        556.4  [cm-1]   --> A'                 
     freq (  44-  44) =        562.3  [cm-1]   --> A'                 
     freq (  45-  45) =        563.5  [cm-1]   --> A''                
     freq (  46-  46) =        576.0  [cm-1]   --> A''                
     freq (  47-  47) =        595.4  [cm-1]   --> A'                 
     freq (  48-  48) =        598.6  [cm-1]   --> A'                 
     freq (  49-  49) =        603.7  [cm-1]   --> A'                 
     freq (  50-  50) =        608.7  [cm-1]   --> A''                
     freq (  51-  51) =        610.5  [cm-1]   --> A'                 
     freq (  52-  52) =        613.7  [cm-1]   --> A''                
     freq (  53-  53) =        623.0  [cm-1]   --> A''                
     freq (  54-  54) =        633.1  [cm-1]   --> A''                
     freq (  55-  55) =        633.5  [cm-1]   --> A''                
     freq (  56-  56) =        634.8  [cm-1]   --> A''                
     freq (  57-  57) =        636.8  [cm-1]   --> A''                
     freq (  58-  58) =        637.4  [cm-1]   --> A''                
     freq (  59-  59) =        639.9  [cm-1]   --> A''                
     freq (  60-  60) =        670.1  [cm-1]   --> A''                
     freq (  61-  61) =        679.6  [cm-1]   --> A''                
     freq (  62-  62) =        681.0  [cm-1]   --> A''                
     freq (  63-  63) =        684.7  [cm-1]   --> A''                
     freq (  64-  64) =        705.4  [cm-1]   --> A'                 
     freq (  65-  65) =        706.8  [cm-1]   --> A'                 
     freq (  66-  66) =        707.3  [cm-1]   --> A'                 
     freq (  67-  67) =        709.2  [cm-1]   --> A'                 
     freq (  68-  68) =        711.6  [cm-1]   --> A''                
     freq (  69-  69) =        713.4  [cm-1]   --> A'                 
     freq (  70-  70) =        713.7  [cm-1]   --> A'                 
     freq (  71-  71) =        716.6  [cm-1]   --> A'                 
     freq (  72-  72) =        718.2  [cm-1]   --> A''                
     freq (  73-  73) =        724.6  [cm-1]   --> A'                 
     freq (  74-  74) =        731.3  [cm-1]   --> A''                
     freq (  75-  75) =        731.4  [cm-1]   --> A''                
     freq (  76-  76) =        732.5  [cm-1]   --> A''                
     freq (  77-  77) =        741.5  [cm-1]   --> A''                
     freq (  78-  78) =        768.7  [cm-1]   --> A''                
     freq (  79-  79) =        772.7  [cm-1]   --> A''                
     freq (  80-  80) =        787.9  [cm-1]   --> A''                
     freq (  81-  81) =        797.4  [cm-1]   --> A''                
     freq (  82-  82) =        809.1  [cm-1]   --> A'                 
     freq (  83-  83) =        824.9  [cm-1]   --> A'                 
     freq (  84-  84) =        837.4  [cm-1]   --> A'                 
     freq (  85-  85) =        839.4  [cm-1]   --> A'                 
     freq (  86-  86) =        910.0  [cm-1]   --> A'                 
     freq (  87-  87) =        915.3  [cm-1]   --> A'                 
     freq (  88-  88) =        925.4  [cm-1]   --> A'                 
     freq (  89-  89) =        933.0  [cm-1]   --> A'                 
     freq (  90-  90) =        979.4  [cm-1]   --> A'                 
     freq (  91-  91) =        982.3  [cm-1]   --> A'                 
     freq (  92-  92) =        991.4  [cm-1]   --> A'                 
     freq (  93-  93) =       1001.5  [cm-1]   --> A'                 
     freq (  94-  94) =       1031.5  [cm-1]   --> A'                 
     freq (  95-  95) =       1040.8  [cm-1]   --> A'                 
     freq (  96-  96) =       1084.4  [cm-1]   --> A'                 
     freq (  97-  97) =       1087.4  [cm-1]   --> A'                 
     freq (  98-  98) =       1091.6  [cm-1]   --> A'                 
     freq (  99-  99) =       1103.3  [cm-1]   --> A'                 
     freq ( 100- 100) =       1143.6  [cm-1]   --> A'                 
     freq ( 101- 101) =       1177.6  [cm-1]   --> A'                 
     freq ( 102- 102) =       1185.3  [cm-1]   --> A'                 
     freq ( 103- 103) =       1221.1  [cm-1]   --> A'                 
     freq ( 104- 104) =       1226.1  [cm-1]   --> A'                 
     freq ( 105- 105) =       1229.5  [cm-1]   --> A'                 
     freq ( 106- 106) =       1230.6  [cm-1]   --> A'                 
     freq ( 107- 107) =       1231.9  [cm-1]   --> A'                 
     freq ( 108- 108) =       1234.0  [cm-1]   --> A'                 
     freq ( 109- 109) =       1237.8  [cm-1]   --> A'                 
     freq ( 110- 110) =       1241.2  [cm-1]   --> A'                 
     freq ( 111- 111) =       1246.3  [cm-1]   --> A'                 
     freq ( 112- 112) =       1249.6  [cm-1]   --> A'                 
     freq ( 113- 113) =       1252.3  [cm-1]   --> A'                 
     freq ( 114- 114) =       1254.0  [cm-1]   --> A'                 
     freq ( 115- 115) =       1255.3  [cm-1]   --> A'                 
     freq ( 116- 116) =       1258.5  [cm-1]   --> A'                 
     freq ( 117- 117) =       1261.4  [cm-1]   --> A'                 
     freq ( 118- 118) =       1262.4  [cm-1]   --> A'                 
     freq ( 119- 119) =       1264.6  [cm-1]   --> A'                 
     freq ( 120- 120) =       1267.4  [cm-1]   --> A'                 
     freq ( 121- 121) =       1275.3  [cm-1]   --> A'                 
     freq ( 122- 122) =       1276.7  [cm-1]   --> A'                 
     freq ( 123- 123) =       1284.1  [cm-1]   --> A'                 
     freq ( 124- 124) =       1285.1  [cm-1]   --> A'                 
     freq ( 125- 125) =       1287.6  [cm-1]   --> A'                 
     freq ( 126- 126) =       1288.0  [cm-1]   --> A'                 
     freq ( 127- 127) =       1293.7  [cm-1]   --> A'                 
     freq ( 128- 128) =       1293.9  [cm-1]   --> A'                 
     freq ( 129- 129) =       1299.1  [cm-1]   --> A'                 
     freq ( 130- 130) =       1306.6  [cm-1]   --> A'                 
     freq ( 131- 131) =       1308.8  [cm-1]   --> A'                 
     freq ( 132- 132) =       1318.0  [cm-1]   --> A'                 
     freq ( 133- 133) =       1324.6  [cm-1]   --> A'                 
     freq ( 134- 134) =       1330.9  [cm-1]   --> A'                 
     freq ( 135- 135) =       1346.5  [cm-1]   --> A'                 
     freq ( 136- 136) =       1360.1  [cm-1]   --> A'                 
     freq ( 137- 137) =       1365.1  [cm-1]   --> A'                 
     freq ( 138- 138) =       1385.6  [cm-1]   --> A'                 
     freq ( 139- 139) =       1387.5  [cm-1]   --> A'                 
     freq ( 140- 140) =       1400.7  [cm-1]   --> A'                 
     freq ( 141- 141) =       1414.0  [cm-1]   --> A'                 
     freq ( 142- 142) =       1440.0  [cm-1]   --> A'                 
     freq ( 143- 143) =       1446.2  [cm-1]   --> A'                 
     freq ( 144- 144) =       1451.1  [cm-1]   --> A'                 
     freq ( 145- 145) =       1455.9  [cm-1]   --> A'                 
     freq ( 146- 146) =       1466.4  [cm-1]   --> A'                 
     freq ( 147- 147) =       1466.5  [cm-1]   --> A'                 
     freq ( 148- 148) =       1489.5  [cm-1]   --> A'                 
     freq ( 149- 149) =       1490.2  [cm-1]   --> A'                 
     freq ( 150- 150) =       1494.0  [cm-1]   --> A'                 
 
     PHONON       :      2h10m CPU      2h22m WALL

     INITIALIZATION: 
     phq_setup    :      0.38s CPU      0.42s WALL (       1 calls)
     phq_init     :    297.88s CPU    305.40s WALL (       1 calls)
 
     phq_init     :    297.88s CPU    305.40s WALL (       1 calls)
     set_drhoc    :      1.48s CPU      1.48s WALL (       1 calls)
     init_vloc    :      1.47s CPU      1.48s WALL (       2 calls)
     init_us_1    :      0.16s CPU      0.17s WALL (       2 calls)
     newd         :      0.19s CPU      0.39s WALL (       2 calls)
     drho         :    293.68s CPU    301.00s WALL (       1 calls)
 
     DYNAMICAL MATRIX:
     phqscf       :   7530.05s CPU   8195.56s WALL (       1 calls)
     dynmatrix    :      1.63s CPU      1.87s WALL (       1 calls)
 
     phqscf       :   7530.05s CPU   8195.56s WALL (       1 calls)
     solve_linter :   7514.14s CPU   8177.35s WALL (      19 calls)
     drhodv       :     15.57s CPU     16.15s WALL (      19 calls)
 
 
 
     phqscf       :   7530.05s CPU   8195.56s WALL (       1 calls)
     solve_linter :   7514.14s CPU   8177.35s WALL (      19 calls)
 
     solve_linter :   7514.14s CPU   8177.35s WALL (      19 calls)
     dvqpsi_us    :     56.71s CPU     58.13s WALL (      72 calls)
     ortho        :     65.61s CPU     66.25s WALL (     820 calls)
     cgsolve      :   3741.57s CPU   3791.43s WALL (     820 calls)
     incdrhoscf   :    286.53s CPU    291.96s WALL (     820 calls)
     addusddens   :    241.70s CPU    365.04s WALL (     354 calls)
     vpsifft      :    180.46s CPU    184.04s WALL (     748 calls)
     dv_of_drho   :     25.02s CPU     29.41s WALL (     205 calls)
     mix_pot      :    116.46s CPU    246.53s WALL (     205 calls)
     psymdvscf    :    248.58s CPU    302.99s WALL (     205 calls)
     newdq        :    129.35s CPU    130.08s WALL (     205 calls)
     adddvscf     :     50.22s CPU     50.68s WALL (     748 calls)
     drhodvus     :     56.15s CPU     87.79s WALL (      19 calls)
 
     dvqpsi_us    :     56.71s CPU     58.13s WALL (      72 calls)
     dvqpsi_us_on :     40.15s CPU     41.41s WALL (      72 calls)
 
     cgsolve      :   3741.57s CPU   3791.43s WALL (     820 calls)
     ch_psi       :   3610.71s CPU   3658.32s WALL (   21599 calls)
 
     ch_psi       :   3610.71s CPU   3658.32s WALL (   21599 calls)
     h_psi        :   2727.41s CPU   2760.86s WALL (   21599 calls)
     last         :    653.61s CPU    661.20s WALL (   21599 calls)
 
     h_psi        :   2727.41s CPU   2760.86s WALL (   21599 calls)
     add_vuspsi   :    197.27s CPU    198.82s WALL (   21599 calls)
 
     incdrhoscf   :    286.53s CPU    291.96s WALL (     820 calls)
     addusdbec    :     28.52s CPU     28.69s WALL (    1420 calls)
 
     drhodvus     :     56.15s CPU     87.79s WALL (      19 calls)
 
      General routines
     calbec       :    500.92s CPU    507.24s WALL (   45774 calls)
     fft          :     73.23s CPU     77.30s WALL (    6630 calls)
     ffts         :     36.38s CPU     36.83s WALL (    3634 calls)
     fftw         :   2652.40s CPU   2689.82s WALL ( 2584016 calls)
     davcio       :      1.37s CPU    291.17s WALL (    9207 calls)
     write_rec    :      1.47s CPU    133.71s WALL (     224 calls)
 
 
     PHONON       :      2h10m CPU      2h22m WALL

 
   This run was terminated on:  13:36:21   1Dec2022            

=------------------------------------------------------------------------------=
   JOB DONE.
=------------------------------------------------------------------------------=
