
     Program PHONON v.6.8 starts on 30Nov2022 at  8:23: 4 

     This program is part of the open-source Quantum ESPRESSO suite
     for quantum simulation of materials; please cite
         "P. Giannozzi et al., J. Phys.:Condens. Matter 21 395502 (2009);
         "P. Giannozzi et al., J. Phys.:Condens. Matter 29 465901 (2017);
         "P. Giannozzi et al., J. Chem. Phys. 152 154105 (2020);
          URL http://www.quantum-espresso.org", 
     in publications or presentations arising from this work. More details at
     http://www.quantum-espresso.org/quote

     Parallel version (MPI & OpenMP), running on      64 processor cores
     Number of MPI processes:                64
     Threads/MPI process:                     1

     MPI processes distributed on     2 nodes
     R & G space division:  proc/nbgrp/npool/nimage =      64
     141490 MiB available memory on the printing compute node when the environment starts
 
     Waiting for input...
     Reading input from standard input

     Reading xml data from directory:

     ./TMP_DIR/1/hBN.save/
     file N.pbe-n-kjpaw_psl.1.0.0.UPF: wavefunction(s)  2S renormalized
     file C.pbe-n-kjpaw_psl.1.0.0.UPF: wavefunction(s)  2S 2P renormalized

     IMPORTANT: XC functional enforced from input :
     Exchange-correlation= PBE
                           (   1   4   3   4   0   0   0)
     Any further DFT definition will be discarded
     Please, verify this is what you really want

 
     Parallelization info
     --------------------
     sticks:   dense  smooth     PW     G-vecs:    dense   smooth      PW
     Min         305     146     39                41099    13666    1887
     Max         306     147     40                41106    13675    1892
     Sum       19551    9379   2523              2630495   874849  120871
 
     Using Slab Decomposition
 
 ----2D----2D----2D----2D----2D----2D----2D----2D----2D----2D----2D----2D
  The code is running with the 2D cutoff
  Please refer to:
  Sohier, T., Calandra, M., & Mauri, F. (2017), 
  Density functional perturbation theory for gated two-dimensional heterostructu
 res:
  Theoretical developments and application to flexural phonons in graphene.
  Physical Review B, 96(7), 75448. https://doi.org/10.1103/PhysRevB.96.075448
 ----2D----2D----2D----2D----2D----2D----2D----2D----2D----2D----2D----2D

     negative rho (up, down):  3.161E-03 0.000E+00
     Reading collected, re-writing distributed wavefunctions

     Saving dvscf to file. Distribute only q points, not irreducible represetations.
        1 /   4 q-points for this run, from  1 to  1:
       N       xq(1)         xq(2)         xq(3) 
       1   0.000000000   0.000000000   0.000000000
       2  -0.000372209  -0.576140554   0.000000000
       3  -0.498767177  -0.288391018   0.000000000
       4  -0.499139386  -0.864531571   0.000000000
 

     Calculation of q =    0.0000000   0.0000000   0.0000000

     Phonon dispersions for hBN                                                 

     bravais-lattice index     =            0
     lattice parameter (alat)  =      23.7646  a.u.
     unit-cell volume          =   13932.4750 (a.u.)^3
     number of atoms/cell      =           50
     number of atomic types    =            3
     kinetic-energy cut-off    =      60.0000  Ry
     charge density cut-off    =     500.0000  Ry
     convergence threshold     =      1.0E-16
     beta                      =       0.1000
     number of iterations used =            4
     Exchange-correlation= PBE
                           (   1   4   3   4   0   0   0)


     celldm(1)=   23.76464  celldm(2)=    0.00000  celldm(3)=    0.00000
     celldm(4)=    0.00000  celldm(5)=    0.00000  celldm(6)=    0.00000

     crystal axes: (cart. coord. in units of alat)
               a(1) = (  1.0028 -0.0006  0.0000 )  
               a(2) = ( -0.5020  0.8682  0.0000 )  
               a(3) = (  0.0000  0.0000  1.1928 )  

     reciprocal axes: (cart. coord. in units 2 pi/alat)
               b(1) = (  0.9975  0.5768  0.0000 )  
               b(2) = (  0.0007  1.1523  0.0000 )  
               b(3) = (  0.0000  0.0000  0.8384 )  


     Atoms inside the unit cell: 

     Cartesian axes

     site n.  atom      mass           positions (alat units)
        1     B   10.8110   tau(    1) = (   -0.00017    0.11526    0.59639  )
        2     B   10.8110   tau(    2) = (   -0.09993    0.28958    0.59639  )
        3     B   10.8110   tau(    3) = (   -0.20162    0.46322    0.59639  )
        4     B   10.8110   tau(    4) = (   -0.30166    0.63680    0.59639  )
        5     B   10.8110   tau(    5) = (   -0.40156    0.81019    0.59639  )
        6     B   10.8110   tau(    6) = (    0.20102    0.11408    0.59639  )
        7     B   10.8110   tau(    7) = (    0.10141    0.28589    0.59639  )
        8     B   10.8110   tau(    8) = (   -0.00211    0.46605    0.59639  )
        9     B   10.8110   tau(    9) = (   -0.10321    0.63794    0.59639  )
       10     B   10.8110   tau(   10) = (   -0.20145    0.81037    0.59639  )
       11     B   10.8110   tau(   11) = (    0.40100    0.11576    0.59639  )
       12     B   10.8110   tau(   12) = (    0.30019    0.28878    0.59639  )
       13     C   12.0107   tau(   13) = (    0.20189    0.46179    0.59639  )
       14     B   10.8110   tau(   14) = (    0.09620    0.63632    0.59639  )
       15     B   10.8110   tau(   15) = (   -0.00110    0.81052    0.59639  )
       16     B   10.8110   tau(   16) = (    0.60170    0.11526    0.59639  )
       17     B   10.8110   tau(   17) = (    0.50130    0.28892    0.59639  )
       18     B   10.8110   tau(   18) = (    0.40087    0.46316    0.59639  )
       19     B   10.8110   tau(   19) = (    0.30398    0.63675    0.59639  )
       20     B   10.8110   tau(   20) = (    0.20011    0.80927    0.59639  )
       21     B   10.8110   tau(   21) = (    0.80238    0.11509    0.59639  )
       22     B   10.8110   tau(   22) = (    0.70189    0.28880    0.59639  )
       23     B   10.8110   tau(   23) = (    0.60111    0.46236    0.59639  )
       24     B   10.8110   tau(   24) = (    0.50257    0.63639    0.59639  )
       25     B   10.8110   tau(   25) = (    0.40096    0.81004    0.59639  )
       26     N   14.0067   tau(   26) = (    0.10033    0.05745    0.59639  )
       27     N   14.0067   tau(   27) = (   -0.00002    0.23036    0.59639  )
       28     N   14.0067   tau(   28) = (   -0.10116    0.40581    0.59639  )
       29     N   14.0067   tau(   29) = (   -0.20232    0.57895    0.59639  )
       30     N   14.0067   tau(   30) = (   -0.30157    0.75246    0.59639  )
       31     N   14.0067   tau(   31) = (    0.30112    0.05741    0.59639  )
       32     N   14.0067   tau(   32) = (    0.20140    0.22910    0.59639  )
       33     C   12.0107   tau(   33) = (    0.10453    0.40638    0.59639  )
       34     N   14.0067   tau(   34) = (   -0.00447    0.58093    0.59639  )
       35     N   14.0067   tau(   35) = (   -0.10168    0.75326    0.59639  )
       36     N   14.0067   tau(   36) = (    0.50119    0.05808    0.59639  )
       37     N   14.0067   tau(   37) = (    0.40084    0.23170    0.59639  )
       38     N   14.0067   tau(   38) = (    0.29968    0.40533    0.59639  )
       39     C   12.0107   tau(   39) = (    0.20119    0.57381    0.59639  )
       40     N   14.0067   tau(   40) = (    0.09885    0.75222    0.59639  )
       41     N   14.0067   tau(   41) = (    0.70201    0.05706    0.59639  )
       42     N   14.0067   tau(   42) = (    0.60162    0.23100    0.59639  )
       43     N   14.0067   tau(   43) = (    0.50063    0.40454    0.59639  )
       44     N   14.0067   tau(   44) = (    0.40316    0.57855    0.59639  )
       45     N   14.0067   tau(   45) = (    0.30136    0.75236    0.59639  )
       46     N   14.0067   tau(   46) = (    0.90257    0.05725    0.59639  )
       47     N   14.0067   tau(   47) = (    0.80246    0.23103    0.59639  )
       48     N   14.0067   tau(   48) = (    0.70116    0.40444    0.59639  )
       49     N   14.0067   tau(   49) = (    0.60170    0.57804    0.59639  )
       50     N   14.0067   tau(   50) = (    0.50128    0.75191    0.59639  )

     Computing dynamical matrix for 
                    q = (   0.0000000   0.0000000   0.0000000 )
 
      3 Sym.Ops. (with q -> -q+G )


     G cutoff = 7152.7441  (  41101 G-vectors)     FFT grid: (180,180,216)
     G cutoff = 3433.3172  (  13668 G-vectors)  smooth grid: (120,120,144)

     number of k points=     4  Methfessel-Paxton smearing, width (Ry)=  0.0100

     PseudoPot. # 1 for B  read from file:
     ./pseudo/B.pbe-n-kjpaw_psl.1.0.0.UPF
     MD5 check sum: 8c825a5969375aca5c2c6ad5945b3059
     Pseudo is Projector augmented-wave + core cor, Zval =  3.0
     Generated using &quot;atomic&quot; code by A. Dal Corso  v.6.3
     Shape of augmentation charge: PSQ
     Using radial grid of 1059 points,  4 beta functions with: 
                l(1) =   0
                l(2) =   0
                l(3) =   1
                l(4) =   1
     Q(r) pseudized with 0 coefficients 


     PseudoPot. # 2 for N  read from file:
     ./pseudo/N.pbe-n-kjpaw_psl.1.0.0.UPF
     MD5 check sum: 14c48229446f9f2d411169a3abcbc3fa
     Pseudo is Projector augmented-wave + core cor, Zval =  5.0
     Generated using &quot;atomic&quot; code by A. Dal Corso  v.6.3
     Shape of augmentation charge: PSQ
     Using radial grid of 1085 points,  4 beta functions with: 
                l(1) =   0
                l(2) =   0
                l(3) =   1
                l(4) =   1
     Q(r) pseudized with 0 coefficients 


     PseudoPot. # 3 for C  read from file:
     ./pseudo/C.pbe-n-kjpaw_psl.1.0.0.UPF
     MD5 check sum: 5f16ad9a65e90284d1d834d4ab3b0f7d
     Pseudo is Projector augmented-wave + core cor, Zval =  4.0
     Generated using &quot;atomic&quot; code by A. Dal Corso  v.6.3
     Shape of augmentation charge: PSQ
     Using radial grid of 1073 points,  4 beta functions with: 
                l(1) =   0
                l(2) =   0
                l(3) =   1
                l(4) =   1
     Q(r) pseudized with 0 coefficients 


     Mode symmetry, C_s (m)     point group:


     Atomic displacements:
     There are  149 irreducible representations

     Representation     1      1 modes -  To be done

     Representation     2      1 modes -  To be done

     Representation     3      1 modes -  To be done

     Representation     4      1 modes -  To be done

     Representation     5      1 modes -  To be done

     Representation     6      1 modes -  To be done

     Representation     7      1 modes -  To be done

     Representation     8      1 modes -  To be done

     Representation     9      1 modes -  To be done

     Representation    10      1 modes -  To be done

     Representation    11      1 modes -  To be done

     Representation    12      1 modes -  To be done

     Representation    13      1 modes -  To be done

     Representation    14      1 modes -  To be done

     Representation    15      1 modes -  To be done

     Representation    16      1 modes -  To be done

     Representation    17      1 modes -  To be done

     Representation    18      1 modes -  To be done

     Representation    19      1 modes -  To be done

     Representation    20      1 modes -  To be done

     Representation    21      1 modes -  To be done

     Representation    22      1 modes -  To be done

     Representation    23      1 modes -  To be done

     Representation    24      1 modes -  To be done

     Representation    25      1 modes -  To be done

     Representation    26      1 modes -  To be done

     Representation    27      1 modes -  To be done

     Representation    28      1 modes -  To be done

     Representation    29      1 modes -  To be done

     Representation    30      1 modes -  To be done

     Representation    31      1 modes -  To be done

     Representation    32      1 modes -  To be done

     Representation    33      1 modes -  To be done

     Representation    34      1 modes -  To be done

     Representation    35      1 modes -  To be done

     Representation    36      1 modes -  To be done

     Representation    37      1 modes -  To be done

     Representation    38      1 modes -  To be done

     Representation    39      1 modes -  To be done

     Representation    40      1 modes -  To be done

     Representation    41      1 modes -  To be done

     Representation    42      1 modes -  To be done

     Representation    43      1 modes -  To be done

     Representation    44      1 modes -  To be done

     Representation    45      1 modes -  To be done

     Representation    46      1 modes -  To be done

     Representation    47      1 modes -  To be done

     Representation    48      1 modes -  To be done

     Representation    49      1 modes -  To be done

     Representation    50      1 modes -  To be done

     Representation    51      1 modes -  To be done

     Representation    52      1 modes -  To be done

     Representation    53      1 modes -  To be done

     Representation    54      1 modes -  To be done

     Representation    55      1 modes -  To be done

     Representation    56      1 modes -  To be done

     Representation    57      1 modes -  To be done

     Representation    58      1 modes -  To be done

     Representation    59      1 modes -  To be done

     Representation    60      1 modes -  To be done

     Representation    61      1 modes -  To be done

     Representation    62      1 modes -  To be done

     Representation    63      1 modes -  To be done

     Representation    64      1 modes -  To be done

     Representation    65      1 modes -  To be done

     Representation    66      1 modes -  To be done

     Representation    67      1 modes -  To be done

     Representation    68      1 modes -  To be done

     Representation    69      1 modes -  To be done

     Representation    70      1 modes -  To be done

     Representation    71      1 modes -  To be done

     Representation    72      1 modes -  To be done

     Representation    73      1 modes -  To be done

     Representation    74      1 modes -  To be done

     Representation    75      1 modes -  To be done

     Representation    76      2 modes -  To be done

     Representation    77      1 modes -  To be done

     Representation    78      1 modes -  To be done

     Representation    79      1 modes -  To be done

     Representation    80      1 modes -  To be done

     Representation    81      1 modes -  To be done

     Representation    82      1 modes -  To be done

     Representation    83      1 modes -  To be done

     Representation    84      1 modes -  To be done

     Representation    85      1 modes -  To be done

     Representation    86      1 modes -  To be done

     Representation    87      1 modes -  To be done

     Representation    88      1 modes -  To be done

     Representation    89      1 modes -  To be done

     Representation    90      1 modes -  To be done

     Representation    91      1 modes -  To be done

     Representation    92      1 modes -  To be done

     Representation    93      1 modes -  To be done

     Representation    94      1 modes -  To be done

     Representation    95      1 modes -  To be done

     Representation    96      1 modes -  To be done

     Representation    97      1 modes -  To be done

     Representation    98      1 modes -  To be done

     Representation    99      1 modes -  To be done

     Representation   100      1 modes -  To be done

     Representation   101      1 modes -  To be done

     Representation   102      1 modes -  To be done

     Representation   103      1 modes -  To be done

     Representation   104      1 modes -  To be done

     Representation   105      1 modes -  To be done

     Representation   106      1 modes -  To be done

     Representation   107      1 modes -  To be done

     Representation   108      1 modes -  To be done

     Representation   109      1 modes -  To be done

     Representation   110      1 modes -  To be done

     Representation   111      1 modes -  To be done

     Representation   112      1 modes -  To be done

     Representation   113      1 modes -  To be done

     Representation   114      1 modes -  To be done

     Representation   115      1 modes -  To be done

     Representation   116      1 modes -  To be done

     Representation   117      1 modes -  To be done

     Representation   118      1 modes -  To be done

     Representation   119      1 modes -  To be done

     Representation   120      1 modes -  To be done

     Representation   121      1 modes -  To be done

     Representation   122      1 modes -  To be done

     Representation   123      1 modes -  To be done

     Representation   124      1 modes -  To be done

     Representation   125      1 modes -  To be done

     Representation   126      1 modes -  To be done

     Representation   127      1 modes -  To be done

     Representation   128      1 modes -  To be done

     Representation   129      1 modes -  To be done

     Representation   130      1 modes -  To be done

     Representation   131      1 modes -  To be done

     Representation   132      1 modes -  To be done

     Representation   133      1 modes -  To be done

     Representation   134      1 modes -  To be done

     Representation   135      1 modes -  To be done

     Representation   136      1 modes -  To be done

     Representation   137      1 modes -  To be done

     Representation   138      1 modes -  To be done

     Representation   139      1 modes -  To be done

     Representation   140      1 modes -  To be done

     Representation   141      1 modes -  To be done

     Representation   142      1 modes -  To be done

     Representation   143      1 modes -  To be done

     Representation   144      1 modes -  To be done

     Representation   145      1 modes -  To be done

     Representation   146      1 modes -  To be done

     Representation   147      1 modes -  To be done

     Representation   148      1 modes -  To be done

     Representation   149      1 modes -  To be done



     Alpha used in Ewald sum =   2.8000

     negative rho (up, down):  3.161E-03 0.000E+00
     PHONON       :  10m 5.81s CPU  11m22.26s WALL



     Representation #   1 mode #   1

     Self-consistent Calculation
 
     Pert. #  1: Fermi energy shift (Ry) =    -5.3980E-03     0.0000E+00

      iter #   1 total cpu time :   719.6 secs   av.it.:   4.8
      thresh= 1.000E-02 alpha_mix =  0.100 |ddv_scf|^2 =  3.437E-09
 
     Pert. #  1: Fermi energy shift (Ry) =    -3.5348E-03     0.0000E+00

      iter #   2 total cpu time :   746.9 secs   av.it.:  13.0
      thresh= 5.863E-06 alpha_mix =  0.100 |ddv_scf|^2 =  1.675E-09
 
     Pert. #  1: Fermi energy shift (Ry) =     6.2855E-04     0.0000E+00

      iter #   3 total cpu time :   794.8 secs   av.it.:  14.0
      thresh= 4.092E-06 alpha_mix =  0.100 |ddv_scf|^2 =  5.883E-11
 
     Pert. #  1: Fermi energy shift (Ry) =     6.0137E-04     0.0000E+00

      iter #   4 total cpu time :   865.9 secs   av.it.:  15.0
      thresh= 7.670E-07 alpha_mix =  0.100 |ddv_scf|^2 =  1.770E-11
 
     Pert. #  1: Fermi energy shift (Ry) =     8.1460E-05     0.0000E+00

      iter #   5 total cpu time :   895.6 secs   av.it.:  14.0
      thresh= 4.207E-07 alpha_mix =  0.100 |ddv_scf|^2 =  4.044E-12
 
     Pert. #  1: Fermi energy shift (Ry) =    -2.6573E-04     0.0000E+00

      iter #   6 total cpu time :   931.6 secs   av.it.:  15.0
      thresh= 2.011E-07 alpha_mix =  0.100 |ddv_scf|^2 =  6.927E-13
 
     Pert. #  1: Fermi energy shift (Ry) =    -2.2437E-04     0.0000E+00

      iter #   7 total cpu time :  1002.1 secs   av.it.:  15.0
      thresh= 8.323E-08 alpha_mix =  0.100 |ddv_scf|^2 =  9.533E-14
 
     Pert. #  1: Fermi energy shift (Ry) =    -1.8804E-04     0.0000E+00

      iter #   8 total cpu time :  1041.0 secs   av.it.:  14.0
      thresh= 3.087E-08 alpha_mix =  0.100 |ddv_scf|^2 =  6.441E-14
 
     Pert. #  1: Fermi energy shift (Ry) =    -8.3899E-05     0.0000E+00

      iter #   9 total cpu time :  1104.1 secs   av.it.:  15.0
      thresh= 2.538E-08 alpha_mix =  0.100 |ddv_scf|^2 =  6.470E-15
 
     Pert. #  1: Fermi energy shift (Ry) =    -1.1143E-04     0.0000E+00

      iter #  10 total cpu time :  1147.1 secs   av.it.:  14.0
      thresh= 8.044E-09 alpha_mix =  0.100 |ddv_scf|^2 =  3.572E-15
 
     Pert. #  1: Fermi energy shift (Ry) =    -1.4927E-04     0.0000E+00

      iter #  11 total cpu time :  1208.8 secs   av.it.:  15.0
      thresh= 5.977E-09 alpha_mix =  0.100 |ddv_scf|^2 =  1.134E-15
 
     Pert. #  1: Fermi energy shift (Ry) =    -1.4760E-04     0.0000E+00

      iter #  12 total cpu time :  1285.6 secs   av.it.:  14.0
      thresh= 3.368E-09 alpha_mix =  0.100 |ddv_scf|^2 =  7.130E-16
 
     Pert. #  1: Fermi energy shift (Ry) =    -1.4289E-04     0.0000E+00

      iter #  13 total cpu time :  1316.3 secs   av.it.:  15.0
      thresh= 2.670E-09 alpha_mix =  0.100 |ddv_scf|^2 =  8.690E-17

     End of self-consistent calculation

     Convergence has been achieved 


     Representation #   2 mode #   2

     Self-consistent Calculation
 
     Pert. #  1: Fermi energy shift (Ry) =    -9.9014E-04     2.0195E-28

      iter #   1 total cpu time :  1370.9 secs   av.it.:   4.0
      thresh= 1.000E-02 alpha_mix =  0.100 |ddv_scf|^2 =  7.169E-10
 
     Pert. #  1: Fermi energy shift (Ry) =    -8.9622E-04     2.0195E-28

      iter #   2 total cpu time :  1401.9 secs   av.it.:  13.0
      thresh= 2.678E-06 alpha_mix =  0.100 |ddv_scf|^2 =  4.299E-10
 
     Pert. #  1: Fermi energy shift (Ry) =    -5.5385E-04    -2.5244E-29

      iter #   3 total cpu time :  1428.6 secs   av.it.:  14.0
      thresh= 2.073E-06 alpha_mix =  0.100 |ddv_scf|^2 =  8.309E-11
 
     Pert. #  1: Fermi energy shift (Ry) =    -4.9895E-04     1.0097E-28

      iter #   4 total cpu time :  1457.1 secs   av.it.:  14.0
      thresh= 9.116E-07 alpha_mix =  0.100 |ddv_scf|^2 =  6.877E-11
 
     Pert. #  1: Fermi energy shift (Ry) =    -3.5260E-04     2.5244E-29

      iter #   5 total cpu time :  1491.4 secs   av.it.:  14.0
      thresh= 8.293E-07 alpha_mix =  0.100 |ddv_scf|^2 =  6.907E-12
 
     Pert. #  1: Fermi energy shift (Ry) =    -4.1905E-04     2.5244E-29

      iter #   6 total cpu time :  1522.5 secs   av.it.:  13.0
      thresh= 2.628E-07 alpha_mix =  0.100 |ddv_scf|^2 =  5.727E-13
 
     Pert. #  1: Fermi energy shift (Ry) =    -4.5180E-04     1.2622E-29

      iter #   7 total cpu time :  1558.9 secs   av.it.:  14.0
      thresh= 7.568E-08 alpha_mix =  0.100 |ddv_scf|^2 =  1.172E-13
 
     Pert. #  1: Fermi energy shift (Ry) =    -4.6760E-04     1.2622E-29

      iter #   8 total cpu time :  1597.9 secs   av.it.:  15.0
      thresh= 3.424E-08 alpha_mix =  0.100 |ddv_scf|^2 =  2.078E-14
 
     Pert. #  1: Fermi energy shift (Ry) =    -4.6325E-04     1.2622E-29

      iter #   9 total cpu time :  1627.3 secs   av.it.:  14.0
      thresh= 1.442E-08 alpha_mix =  0.100 |ddv_scf|^2 =  1.067E-14
 
     Pert. #  1: Fermi energy shift (Ry) =    -4.5619E-04     1.2622E-29

      iter #  10 total cpu time :  1669.9 secs   av.it.:  15.0
      thresh= 1.033E-08 alpha_mix =  0.100 |ddv_scf|^2 =  3.208E-15
 
     Pert. #  1: Fermi energy shift (Ry) =    -4.5690E-04     1.2622E-29

      iter #  11 total cpu time :  1738.4 secs   av.it.:  13.5
      thresh= 5.664E-09 alpha_mix =  0.100 |ddv_scf|^2 =  1.619E-15
 
     Pert. #  1: Fermi energy shift (Ry) =    -4.5985E-04     1.2622E-29

      iter #  12 total cpu time :  1771.6 secs   av.it.:  15.0
      thresh= 4.024E-09 alpha_mix =  0.100 |ddv_scf|^2 =  1.697E-16
 
     Pert. #  1: Fermi energy shift (Ry) =    -4.5983E-04     1.2622E-29

      iter #  13 total cpu time :  1816.7 secs   av.it.:  13.5
      thresh= 1.303E-09 alpha_mix =  0.100 |ddv_scf|^2 =  9.505E-17

     End of self-consistent calculation

     Convergence has been achieved 


     Representation #   3 mode #   3

     Self-consistent Calculation
 
     Pert. #  1: Fermi energy shift (Ry) =    -1.1853E-02     0.0000E+00

      iter #   1 total cpu time :  1884.3 secs   av.it.:   4.5
      thresh= 1.000E-02 alpha_mix =  0.100 |ddv_scf|^2 =  3.454E-09
 
     Pert. #  1: Fermi energy shift (Ry) =    -6.3221E-03     0.0000E+00

      iter #   2 total cpu time :  1958.0 secs   av.it.:  13.0
      thresh= 5.877E-06 alpha_mix =  0.100 |ddv_scf|^2 =  1.673E-09
 
     Pert. #  1: Fermi energy shift (Ry) =     5.0347E-03     0.0000E+00

      iter #   3 total cpu time :  1985.2 secs   av.it.:  14.0
      thresh= 4.090E-06 alpha_mix =  0.100 |ddv_scf|^2 =  6.044E-11
 
     Pert. #  1: Fermi energy shift (Ry) =     3.3526E-03     0.0000E+00

      iter #   4 total cpu time :  2032.7 secs   av.it.:  15.0
      thresh= 7.775E-07 alpha_mix =  0.100 |ddv_scf|^2 =  1.751E-11
 
     Pert. #  1: Fermi energy shift (Ry) =     2.2365E-03     0.0000E+00

      iter #   5 total cpu time :  2060.9 secs   av.it.:  14.0
      thresh= 4.185E-07 alpha_mix =  0.100 |ddv_scf|^2 =  4.096E-12
 
     Pert. #  1: Fermi energy shift (Ry) =     1.9992E-03     0.0000E+00

      iter #   6 total cpu time :  2102.3 secs   av.it.:  15.0
      thresh= 2.024E-07 alpha_mix =  0.100 |ddv_scf|^2 =  7.045E-13
 
     Pert. #  1: Fermi energy shift (Ry) =     2.2270E-03     0.0000E+00

      iter #   7 total cpu time :  2135.9 secs   av.it.:  15.0
      thresh= 8.393E-08 alpha_mix =  0.100 |ddv_scf|^2 =  9.247E-14
 
     Pert. #  1: Fermi energy shift (Ry) =     2.2449E-03     0.0000E+00

      iter #   8 total cpu time :  2170.0 secs   av.it.:  13.0
      thresh= 3.041E-08 alpha_mix =  0.100 |ddv_scf|^2 =  6.336E-14
 
     Pert. #  1: Fermi energy shift (Ry) =     2.1687E-03     0.0000E+00

      iter #   9 total cpu time :  2198.9 secs   av.it.:  15.0
      thresh= 2.517E-08 alpha_mix =  0.100 |ddv_scf|^2 =  6.173E-15
 
     Pert. #  1: Fermi energy shift (Ry) =     2.1702E-03     0.0000E+00

      iter #  10 total cpu time :  2226.8 secs   av.it.:  14.0
      thresh= 7.857E-09 alpha_mix =  0.100 |ddv_scf|^2 =  3.652E-15
 
     Pert. #  1: Fermi energy shift (Ry) =     2.1958E-03     0.0000E+00

      iter #  11 total cpu time :  2266.5 secs   av.it.:  15.0
      thresh= 6.043E-09 alpha_mix =  0.100 |ddv_scf|^2 =  5.672E-16
 
     Pert. #  1: Fermi energy shift (Ry) =     2.1958E-03     0.0000E+00

      iter #  12 total cpu time :  2292.4 secs   av.it.:  13.2
      thresh= 2.382E-09 alpha_mix =  0.100 |ddv_scf|^2 =  3.736E-16
 
     Pert. #  1: Fermi energy shift (Ry) =     2.1892E-03     0.0000E+00

      iter #  13 total cpu time :  2331.6 secs   av.it.:  16.0
      thresh= 1.933E-09 alpha_mix =  0.100 |ddv_scf|^2 =  2.965E-17

     End of self-consistent calculation

     Convergence has been achieved 


     Representation #   4 mode #   4

     Self-consistent Calculation
 
     Pert. #  1: Fermi energy shift (Ry) =    -4.0008E-02    -3.5341E-28

      iter #   1 total cpu time :  2388.7 secs   av.it.:   4.5
      thresh= 1.000E-02 alpha_mix =  0.100 |ddv_scf|^2 =  3.499E-09
 
     Pert. #  1: Fermi energy shift (Ry) =    -2.2412E-02    -5.0487E-28

      iter #   2 total cpu time :  2434.1 secs   av.it.:  13.0
      thresh= 5.916E-06 alpha_mix =  0.100 |ddv_scf|^2 =  1.681E-09
 
     Pert. #  1: Fermi energy shift (Ry) =     1.3393E-02    -5.5536E-28

      iter #   3 total cpu time :  2504.4 secs   av.it.:  14.0
      thresh= 4.100E-06 alpha_mix =  0.100 |ddv_scf|^2 =  6.456E-11
 
     Pert. #  1: Fermi energy shift (Ry) =     1.2036E-02    -3.0292E-28

      iter #   4 total cpu time :  2538.5 secs   av.it.:  15.0
      thresh= 8.035E-07 alpha_mix =  0.100 |ddv_scf|^2 =  1.730E-11
 
     Pert. #  1: Fermi energy shift (Ry) =     7.8680E-03    -3.0292E-28

      iter #   5 total cpu time :  2586.4 secs   av.it.:  14.0
      thresh= 4.160E-07 alpha_mix =  0.100 |ddv_scf|^2 =  5.136E-12
 
     Pert. #  1: Fermi energy shift (Ry) =     7.0562E-03    -2.5244E-28

      iter #   6 total cpu time :  2616.1 secs   av.it.:  15.0
      thresh= 2.266E-07 alpha_mix =  0.100 |ddv_scf|^2 =  7.452E-13
 
     Pert. #  1: Fermi energy shift (Ry) =     7.2920E-03    -2.7768E-28

      iter #   7 total cpu time :  2660.7 secs   av.it.:  15.0
      thresh= 8.633E-08 alpha_mix =  0.100 |ddv_scf|^2 =  9.701E-14
 
     Pert. #  1: Fermi energy shift (Ry) =     7.2957E-03    -2.7768E-28

      iter #   8 total cpu time :  2698.0 secs   av.it.:  14.0
      thresh= 3.115E-08 alpha_mix =  0.100 |ddv_scf|^2 =  6.561E-14
 
     Pert. #  1: Fermi energy shift (Ry) =     7.1285E-03    -2.7768E-28

      iter #   9 total cpu time :  2726.0 secs   av.it.:  15.0
      thresh= 2.562E-08 alpha_mix =  0.100 |ddv_scf|^2 =  9.249E-15
 
     Pert. #  1: Fermi energy shift (Ry) =     7.1136E-03    -2.7768E-28

      iter #  10 total cpu time :  2767.1 secs   av.it.:  14.0
      thresh= 9.617E-09 alpha_mix =  0.100 |ddv_scf|^2 =  4.694E-15
 
     Pert. #  1: Fermi energy shift (Ry) =     7.1815E-03    -2.7768E-28

      iter #  11 total cpu time :  2830.6 secs   av.it.:  15.0
      thresh= 6.851E-09 alpha_mix =  0.100 |ddv_scf|^2 =  7.357E-16
 
     Pert. #  1: Fermi energy shift (Ry) =     7.1852E-03    -2.7768E-28

      iter #  12 total cpu time :  2859.3 secs   av.it.:  13.0
      thresh= 2.712E-09 alpha_mix =  0.100 |ddv_scf|^2 =  4.998E-16
 
     Pert. #  1: Fermi energy shift (Ry) =     7.1795E-03    -2.7768E-28

      iter #  13 total cpu time :  2919.4 secs   av.it.:  15.0
      thresh= 2.236E-09 alpha_mix =  0.100 |ddv_scf|^2 =  3.355E-17

     End of self-consistent calculation

     Convergence has been achieved 


     Representation #   5 mode #   5

     Self-consistent Calculation
 
     Pert. #  1: Fermi energy shift (Ry) =    -3.1288E-02    -1.2117E-27

      iter #   1 total cpu time :  2947.1 secs   av.it.:   4.0
      thresh= 1.000E-02 alpha_mix =  0.100 |ddv_scf|^2 =  6.683E-10
 
     Pert. #  1: Fermi energy shift (Ry) =    -2.3481E-02    -8.0779E-28

      iter #   2 total cpu time :  2983.8 secs   av.it.:  13.0
      thresh= 2.585E-06 alpha_mix =  0.100 |ddv_scf|^2 =  3.895E-10
 
     Pert. #  1: Fermi energy shift (Ry) =    -4.5533E-03    -1.5146E-28

      iter #   3 total cpu time :  3057.2 secs   av.it.:  14.0
      thresh= 1.974E-06 alpha_mix =  0.100 |ddv_scf|^2 =  7.335E-11
 
     Pert. #  1: Fermi energy shift (Ry) =    -1.0957E-02    -3.0292E-28

      iter #   4 total cpu time :  3124.5 secs   av.it.:  13.0
      thresh= 8.564E-07 alpha_mix =  0.100 |ddv_scf|^2 =  4.228E-11
 
     Pert. #  1: Fermi energy shift (Ry) =    -7.4931E-03    -1.2622E-28

      iter #   5 total cpu time :  3185.8 secs   av.it.:  14.0
      thresh= 6.502E-07 alpha_mix =  0.100 |ddv_scf|^2 =  1.032E-11
 
     Pert. #  1: Fermi energy shift (Ry) =    -1.0014E-02    -2.5244E-28

      iter #   6 total cpu time :  3222.8 secs   av.it.:  15.0
      thresh= 3.212E-07 alpha_mix =  0.100 |ddv_scf|^2 =  7.653E-13
 
     Pert. #  1: Fermi energy shift (Ry) =    -8.3494E-03    -2.5244E-28

      iter #   7 total cpu time :  3251.5 secs   av.it.:  14.2
      thresh= 8.748E-08 alpha_mix =  0.100 |ddv_scf|^2 =  1.025E-13
 
     Pert. #  1: Fermi energy shift (Ry) =    -8.0226E-03    -2.5244E-28

      iter #   8 total cpu time :  3318.6 secs   av.it.:  15.0
      thresh= 3.201E-08 alpha_mix =  0.100 |ddv_scf|^2 =  2.482E-14
 
     Pert. #  1: Fermi energy shift (Ry) =    -8.2992E-03    -2.5244E-28

      iter #   9 total cpu time :  3351.3 secs   av.it.:  14.0
      thresh= 1.576E-08 alpha_mix =  0.100 |ddv_scf|^2 =  1.057E-14
 
     Pert. #  1: Fermi energy shift (Ry) =    -8.5647E-03    -2.5244E-28

      iter #  10 total cpu time :  3383.1 secs   av.it.:  15.0
      thresh= 1.028E-08 alpha_mix =  0.100 |ddv_scf|^2 =  3.756E-15
 
     Pert. #  1: Fermi energy shift (Ry) =    -8.5825E-03    -2.5244E-28

      iter #  11 total cpu time :  3413.3 secs   av.it.:  14.0
      thresh= 6.129E-09 alpha_mix =  0.100 |ddv_scf|^2 =  2.275E-15
 
     Pert. #  1: Fermi energy shift (Ry) =    -8.5764E-03    -2.5244E-28

      iter #  12 total cpu time :  3454.8 secs   av.it.:  14.0
      thresh= 4.770E-09 alpha_mix =  0.100 |ddv_scf|^2 =  1.095E-15
 
     Pert. #  1: Fermi energy shift (Ry) =    -8.5846E-03    -2.5244E-28

      iter #  13 total cpu time :  3519.6 secs   av.it.:  14.0
      thresh= 3.309E-09 alpha_mix =  0.100 |ddv_scf|^2 =  3.740E-16
 
     Pert. #  1: Fermi energy shift (Ry) =    -8.5777E-03    -2.5244E-28

      iter #  14 total cpu time :  3549.4 secs   av.it.:  14.0
      thresh= 1.934E-09 alpha_mix =  0.100 |ddv_scf|^2 =  1.380E-16
 
     Pert. #  1: Fermi energy shift (Ry) =    -8.5539E-03    -2.5244E-28

      iter #  15 total cpu time :  3579.8 secs   av.it.:  14.0
      thresh= 1.175E-09 alpha_mix =  0.100 |ddv_scf|^2 =  4.508E-17

     End of self-consistent calculation

     Convergence has been achieved 


     Representation #   6 mode #   6

     Self-consistent Calculation
 
     Pert. #  1: Fermi energy shift (Ry) =    -4.5708E-02     4.0390E-28

      iter #   1 total cpu time :  3647.7 secs   av.it.:   4.0
      thresh= 1.000E-02 alpha_mix =  0.100 |ddv_scf|^2 =  2.187E-09
 
     Pert. #  1: Fermi energy shift (Ry) =    -2.3026E-02     3.0292E-28

      iter #   2 total cpu time :  3674.0 secs   av.it.:  12.0
      thresh= 4.677E-06 alpha_mix =  0.100 |ddv_scf|^2 =  1.096E-09
 
     Pert. #  1: Fermi energy shift (Ry) =     1.8462E-02     2.0195E-28

      iter #   3 total cpu time :  3722.2 secs   av.it.:  14.0
      thresh= 3.310E-06 alpha_mix =  0.100 |ddv_scf|^2 =  1.475E-10
 
     Pert. #  1: Fermi energy shift (Ry) =     1.1472E-02     7.5731E-29

      iter #   4 total cpu time :  3800.6 secs   av.it.:  14.0
      thresh= 1.214E-06 alpha_mix =  0.100 |ddv_scf|^2 =  4.590E-11
 
     Pert. #  1: Fermi energy shift (Ry) =     7.0036E-03     1.0097E-28

      iter #   5 total cpu time :  3836.4 secs   av.it.:  13.0
      thresh= 6.775E-07 alpha_mix =  0.100 |ddv_scf|^2 =  2.132E-11
 
     Pert. #  1: Fermi energy shift (Ry) =     2.2795E-03     1.0097E-28

      iter #   6 total cpu time :  3871.5 secs   av.it.:  14.0
      thresh= 4.617E-07 alpha_mix =  0.100 |ddv_scf|^2 =  2.959E-12
 
     Pert. #  1: Fermi energy shift (Ry) =     6.7421E-03     1.0097E-28

      iter #   7 total cpu time :  3934.7 secs   av.it.:  15.0
      thresh= 1.720E-07 alpha_mix =  0.100 |ddv_scf|^2 =  2.007E-13
 
     Pert. #  1: Fermi energy shift (Ry) =     6.7733E-03     1.0097E-28

      iter #   8 total cpu time :  3997.4 secs   av.it.:  13.0
      thresh= 4.480E-08 alpha_mix =  0.100 |ddv_scf|^2 =  1.293E-13
 
     Pert. #  1: Fermi energy shift (Ry) =     6.5557E-03     1.0097E-28

      iter #   9 total cpu time :  4032.0 secs   av.it.:  15.0
      thresh= 3.595E-08 alpha_mix =  0.100 |ddv_scf|^2 =  8.046E-15
 
     Pert. #  1: Fermi energy shift (Ry) =     6.7158E-03     1.0097E-28

      iter #  10 total cpu time :  4067.7 secs   av.it.:  15.0
      thresh= 8.970E-09 alpha_mix =  0.100 |ddv_scf|^2 =  1.384E-15
 
     Pert. #  1: Fermi energy shift (Ry) =     6.7314E-03     1.0097E-28

      iter #  11 total cpu time :  4168.4 secs   av.it.:  14.0
      thresh= 3.721E-09 alpha_mix =  0.100 |ddv_scf|^2 =  7.428E-16
 
     Pert. #  1: Fermi energy shift (Ry) =     6.7228E-03     1.0097E-28

      iter #  12 total cpu time :  4234.2 secs   av.it.:  14.8
      thresh= 2.726E-09 alpha_mix =  0.100 |ddv_scf|^2 =  3.585E-16
 
     Pert. #  1: Fermi energy shift (Ry) =     6.6851E-03     1.0097E-28

      iter #  13 total cpu time :  4263.5 secs   av.it.:  15.0
      thresh= 1.893E-09 alpha_mix =  0.100 |ddv_scf|^2 =  7.983E-17

     End of self-consistent calculation

     Convergence has been achieved 


     Representation #   7 mode #   7

     Self-consistent Calculation
 
     Pert. #  1: Fermi energy shift (Ry) =    -1.1297E-02    -4.0390E-28

      iter #   1 total cpu time :  4322.2 secs   av.it.:   4.0
      thresh= 1.000E-02 alpha_mix =  0.100 |ddv_scf|^2 =  6.332E-10
 
     Pert. #  1: Fermi energy shift (Ry) =    -7.5528E-03    -2.0195E-28

      iter #   2 total cpu time :  4356.2 secs   av.it.:  13.0
      thresh= 2.516E-06 alpha_mix =  0.100 |ddv_scf|^2 =  3.767E-10
 
     Pert. #  1: Fermi energy shift (Ry) =     1.8743E-03     1.7670E-28

      iter #   3 total cpu time :  4392.0 secs   av.it.:  14.0
      thresh= 1.941E-06 alpha_mix =  0.100 |ddv_scf|^2 =  6.796E-11
 
     Pert. #  1: Fermi energy shift (Ry) =    -2.7913E-03     4.7332E-30

      iter #   4 total cpu time :  4463.4 secs   av.it.:  14.0
      thresh= 8.244E-07 alpha_mix =  0.100 |ddv_scf|^2 =  4.472E-11
 
     Pert. #  1: Fermi energy shift (Ry) =    -1.7767E-03     5.0487E-29

      iter #   5 total cpu time :  4531.9 secs   av.it.:  14.0
      thresh= 6.687E-07 alpha_mix =  0.100 |ddv_scf|^2 =  3.421E-12
 
     Pert. #  1: Fermi energy shift (Ry) =    -1.8193E-03     5.0487E-29

      iter #   6 total cpu time :  4577.8 secs   av.it.:  14.0
      thresh= 1.850E-07 alpha_mix =  0.100 |ddv_scf|^2 =  5.926E-13
 
     Pert. #  1: Fermi energy shift (Ry) =    -1.2029E-03     7.5731E-29

      iter #   7 total cpu time :  4606.7 secs   av.it.:  14.0
      thresh= 7.698E-08 alpha_mix =  0.100 |ddv_scf|^2 =  1.045E-13
 
     Pert. #  1: Fermi energy shift (Ry) =    -1.0391E-03     7.5731E-29

      iter #   8 total cpu time :  4635.9 secs   av.it.:  15.0
      thresh= 3.233E-08 alpha_mix =  0.100 |ddv_scf|^2 =  1.923E-14
 
     Pert. #  1: Fermi energy shift (Ry) =    -1.1039E-03     7.5731E-29

      iter #   9 total cpu time :  4702.5 secs   av.it.:  14.0
      thresh= 1.387E-08 alpha_mix =  0.100 |ddv_scf|^2 =  1.073E-14
 
     Pert. #  1: Fermi energy shift (Ry) =    -1.2270E-03     7.5731E-29

      iter #  10 total cpu time :  4767.5 secs   av.it.:  15.0
      thresh= 1.036E-08 alpha_mix =  0.100 |ddv_scf|^2 =  2.313E-15
 
     Pert. #  1: Fermi energy shift (Ry) =    -1.1873E-03     7.5731E-29

      iter #  11 total cpu time :  4797.2 secs   av.it.:  14.5
      thresh= 4.809E-09 alpha_mix =  0.100 |ddv_scf|^2 =  9.872E-16
 
     Pert. #  1: Fermi energy shift (Ry) =    -1.1756E-03     7.5731E-29

      iter #  12 total cpu time :  4862.0 secs   av.it.:  13.0
      thresh= 3.142E-09 alpha_mix =  0.100 |ddv_scf|^2 =  6.463E-16
 
     Pert. #  1: Fermi energy shift (Ry) =    -1.1674E-03     7.5731E-29

      iter #  13 total cpu time :  4894.5 secs   av.it.:  15.0
      thresh= 2.542E-09 alpha_mix =  0.100 |ddv_scf|^2 =  1.092E-16
 
     Pert. #  1: Fermi energy shift (Ry) =    -1.1692E-03     7.5731E-29

      iter #  14 total cpu time :  4948.0 secs   av.it.:  14.0
      thresh= 1.045E-09 alpha_mix =  0.100 |ddv_scf|^2 =  4.740E-17

     End of self-consistent calculation

     Convergence has been achieved 


     Representation #   8 mode #   8

     Self-consistent Calculation
 
     Pert. #  1: Fermi energy shift (Ry) =     1.7411E-02     0.0000E+00

      iter #   1 total cpu time :  5001.3 secs   av.it.:   4.5
      thresh= 1.000E-02 alpha_mix =  0.100 |ddv_scf|^2 =  3.512E-09
 
     Pert. #  1: Fermi energy shift (Ry) =     8.4640E-03     0.0000E+00

      iter #   2 total cpu time :  5031.6 secs   av.it.:  13.0
      thresh= 5.926E-06 alpha_mix =  0.100 |ddv_scf|^2 =  1.682E-09
 
     Pert. #  1: Fermi energy shift (Ry) =    -8.8980E-03     0.0000E+00

      iter #   3 total cpu time :  5092.9 secs   av.it.:  14.0
      thresh= 4.101E-06 alpha_mix =  0.100 |ddv_scf|^2 =  6.484E-11
 
     Pert. #  1: Fermi energy shift (Ry) =    -6.6198E-03     0.0000E+00

      iter #   4 total cpu time :  5157.0 secs   av.it.:  15.0
      thresh= 8.052E-07 alpha_mix =  0.100 |ddv_scf|^2 =  2.217E-11
 
     Pert. #  1: Fermi energy shift (Ry) =    -5.0960E-03     0.0000E+00

      iter #   5 total cpu time :  5245.2 secs   av.it.:  14.0
      thresh= 4.708E-07 alpha_mix =  0.100 |ddv_scf|^2 =  4.680E-12
 
     Pert. #  1: Fermi energy shift (Ry) =    -4.0584E-03     0.0000E+00

      iter #   6 total cpu time :  5276.9 secs   av.it.:  15.0
      thresh= 2.163E-07 alpha_mix =  0.100 |ddv_scf|^2 =  7.060E-13
 
     Pert. #  1: Fermi energy shift (Ry) =    -4.2839E-03     0.0000E+00

      iter #   7 total cpu time :  5311.0 secs   av.it.:  15.0
      thresh= 8.402E-08 alpha_mix =  0.100 |ddv_scf|^2 =  1.018E-13
 
     Pert. #  1: Fermi energy shift (Ry) =    -4.3173E-03     0.0000E+00

      iter #   8 total cpu time :  5387.8 secs   av.it.:  14.0
      thresh= 3.191E-08 alpha_mix =  0.100 |ddv_scf|^2 =  6.573E-14
 
     Pert. #  1: Fermi energy shift (Ry) =    -4.2917E-03     0.0000E+00

      iter #   9 total cpu time :  5457.0 secs   av.it.:  15.0
      thresh= 2.564E-08 alpha_mix =  0.100 |ddv_scf|^2 =  7.294E-15
 
     Pert. #  1: Fermi energy shift (Ry) =    -4.2939E-03     0.0000E+00

      iter #  10 total cpu time :  5487.8 secs   av.it.:  14.0
      thresh= 8.540E-09 alpha_mix =  0.100 |ddv_scf|^2 =  3.613E-15
 
     Pert. #  1: Fermi energy shift (Ry) =    -4.3031E-03     0.0000E+00

      iter #  11 total cpu time :  5516.1 secs   av.it.:  15.0
      thresh= 6.011E-09 alpha_mix =  0.100 |ddv_scf|^2 =  1.144E-15
 
     Pert. #  1: Fermi energy shift (Ry) =    -4.3029E-03     0.0000E+00

      iter #  12 total cpu time :  5551.8 secs   av.it.:  14.0
      thresh= 3.382E-09 alpha_mix =  0.100 |ddv_scf|^2 =  5.503E-16
 
     Pert. #  1: Fermi energy shift (Ry) =    -4.2950E-03     0.0000E+00

      iter #  13 total cpu time :  5614.9 secs   av.it.:  15.0
      thresh= 2.346E-09 alpha_mix =  0.100 |ddv_scf|^2 =  1.174E-16
 
     Pert. #  1: Fermi energy shift (Ry) =    -4.2937E-03     0.0000E+00

      iter #  14 total cpu time :  5645.7 secs   av.it.:  14.0
      thresh= 1.083E-09 alpha_mix =  0.100 |ddv_scf|^2 =  5.866E-17

     End of self-consistent calculation

     Convergence has been achieved 


     Representation #   9 mode #   9

     Self-consistent Calculation
 
     Pert. #  1: Fermi energy shift (Ry) =    -9.6137E-02     5.0487E-28

      iter #   1 total cpu time :  5710.3 secs   av.it.:   4.8
      thresh= 1.000E-02 alpha_mix =  0.100 |ddv_scf|^2 =  3.600E-09
 
     Pert. #  1: Fermi energy shift (Ry) =    -4.2567E-02     2.0195E-28

      iter #   2 total cpu time :  5770.6 secs   av.it.:  13.0
      thresh= 6.000E-06 alpha_mix =  0.100 |ddv_scf|^2 =  1.702E-09
 
     Pert. #  1: Fermi energy shift (Ry) =     5.6964E-02    -2.0195E-28

      iter #   3 total cpu time :  5808.2 secs   av.it.:  14.0
      thresh= 4.126E-06 alpha_mix =  0.100 |ddv_scf|^2 =  6.965E-11
 
     Pert. #  1: Fermi energy shift (Ry) =     3.8950E-02    -2.0195E-28

      iter #   4 total cpu time :  5873.8 secs   av.it.:  15.0
      thresh= 8.346E-07 alpha_mix =  0.100 |ddv_scf|^2 =  1.830E-11
 
     Pert. #  1: Fermi energy shift (Ry) =     2.8318E-02    -1.2622E-28

      iter #   5 total cpu time :  5956.0 secs   av.it.:  14.0
      thresh= 4.278E-07 alpha_mix =  0.100 |ddv_scf|^2 =  5.105E-12
 
     Pert. #  1: Fermi energy shift (Ry) =     2.6711E-02    -1.2622E-28

      iter #   6 total cpu time :  5996.1 secs   av.it.:  15.0
      thresh= 2.259E-07 alpha_mix =  0.100 |ddv_scf|^2 =  8.337E-13
 
     Pert. #  1: Fermi energy shift (Ry) =     2.7744E-02    -1.2622E-28

      iter #   7 total cpu time :  6028.1 secs   av.it.:  15.0
      thresh= 9.130E-08 alpha_mix =  0.100 |ddv_scf|^2 =  1.084E-13
 
     Pert. #  1: Fermi energy shift (Ry) =     2.7749E-02    -1.2622E-28

      iter #   8 total cpu time :  6064.1 secs   av.it.:  13.5
      thresh= 3.293E-08 alpha_mix =  0.100 |ddv_scf|^2 =  7.347E-14
 
     Pert. #  1: Fermi energy shift (Ry) =     2.7315E-02    -1.2622E-28

      iter #   9 total cpu time :  6130.2 secs   av.it.:  15.0
      thresh= 2.710E-08 alpha_mix =  0.100 |ddv_scf|^2 =  1.179E-14
 
     Pert. #  1: Fermi energy shift (Ry) =     2.7355E-02    -1.2622E-28

      iter #  10 total cpu time :  6181.7 secs   av.it.:  15.0
      thresh= 1.086E-08 alpha_mix =  0.100 |ddv_scf|^2 =  2.330E-15
 
     Pert. #  1: Fermi energy shift (Ry) =     2.7399E-02    -1.2622E-28

      iter #  11 total cpu time :  6229.8 secs   av.it.:  14.0
      thresh= 4.827E-09 alpha_mix =  0.100 |ddv_scf|^2 =  1.366E-15
 
     Pert. #  1: Fermi energy shift (Ry) =     2.7485E-02    -1.2622E-28

      iter #  12 total cpu time :  6290.3 secs   av.it.:  15.0
      thresh= 3.696E-09 alpha_mix =  0.100 |ddv_scf|^2 =  3.020E-16
 
     Pert. #  1: Fermi energy shift (Ry) =     2.7476E-02    -1.2622E-28

      iter #  13 total cpu time :  6383.2 secs   av.it.:  15.0
      thresh= 1.738E-09 alpha_mix =  0.100 |ddv_scf|^2 =  6.031E-17

     End of self-consistent calculation

     Convergence has been achieved 


     Representation #  10 mode #  10

     Self-consistent Calculation
 
     Pert. #  1: Fermi energy shift (Ry) =    -4.2773E-02    -2.0195E-28

      iter #   1 total cpu time :  6449.8 secs   av.it.:   4.0
      thresh= 1.000E-02 alpha_mix =  0.100 |ddv_scf|^2 =  7.172E-10
 
     Pert. #  1: Fermi energy shift (Ry) =    -3.2359E-02    -1.0097E-28

      iter #   2 total cpu time :  6474.9 secs   av.it.:  13.0
      thresh= 2.678E-06 alpha_mix =  0.100 |ddv_scf|^2 =  4.054E-10
 
     Pert. #  1: Fermi energy shift (Ry) =    -8.8354E-03    -2.5244E-29

      iter #   3 total cpu time :  6501.0 secs   av.it.:  14.0
      thresh= 2.013E-06 alpha_mix =  0.100 |ddv_scf|^2 =  8.401E-11
 
     Pert. #  1: Fermi energy shift (Ry) =    -1.5933E-02    -5.0487E-29

      iter #   4 total cpu time :  6526.2 secs   av.it.:  13.8
      thresh= 9.165E-07 alpha_mix =  0.100 |ddv_scf|^2 =  4.559E-11
 
     Pert. #  1: Fermi energy shift (Ry) =    -8.4946E-03    -6.3109E-30

      iter #   5 total cpu time :  6578.1 secs   av.it.:  14.0
      thresh= 6.752E-07 alpha_mix =  0.100 |ddv_scf|^2 =  1.451E-11
 
     Pert. #  1: Fermi energy shift (Ry) =    -1.3284E-02    -5.0487E-29

      iter #   6 total cpu time :  6614.8 secs   av.it.:  14.0
      thresh= 3.809E-07 alpha_mix =  0.100 |ddv_scf|^2 =  6.190E-13
 
     Pert. #  1: Fermi energy shift (Ry) =    -1.1758E-02    -5.0487E-29

      iter #   7 total cpu time :  6673.3 secs   av.it.:  14.0
      thresh= 7.868E-08 alpha_mix =  0.100 |ddv_scf|^2 =  1.175E-13
 
     Pert. #  1: Fermi energy shift (Ry) =    -1.1293E-02    -5.0487E-29

      iter #   8 total cpu time :  6741.8 secs   av.it.:  15.0
      thresh= 3.428E-08 alpha_mix =  0.100 |ddv_scf|^2 =  2.666E-14
 
     Pert. #  1: Fermi energy shift (Ry) =    -1.1607E-02    -5.0487E-29

      iter #   9 total cpu time :  6810.8 secs   av.it.:  15.0
      thresh= 1.633E-08 alpha_mix =  0.100 |ddv_scf|^2 =  8.968E-15
 
     Pert. #  1: Fermi energy shift (Ry) =    -1.1779E-02    -5.0487E-29

      iter #  10 total cpu time :  6887.2 secs   av.it.:  14.0
      thresh= 9.470E-09 alpha_mix =  0.100 |ddv_scf|^2 =  4.102E-15
 
     Pert. #  1: Fermi energy shift (Ry) =    -1.1857E-02    -5.0487E-29

      iter #  11 total cpu time :  6929.7 secs   av.it.:  15.0
      thresh= 6.404E-09 alpha_mix =  0.100 |ddv_scf|^2 =  9.103E-16
 
     Pert. #  1: Fermi energy shift (Ry) =    -1.1852E-02    -5.0487E-29

      iter #  12 total cpu time :  6966.7 secs   av.it.:  13.5
      thresh= 3.017E-09 alpha_mix =  0.100 |ddv_scf|^2 =  5.251E-16
 
     Pert. #  1: Fermi energy shift (Ry) =    -1.1840E-02    -5.0487E-29

      iter #  13 total cpu time :  7031.2 secs   av.it.:  15.0
      thresh= 2.292E-09 alpha_mix =  0.100 |ddv_scf|^2 =  9.639E-17

     End of self-consistent calculation

     Convergence has been achieved 


     Representation #  11 mode #  11

     Self-consistent Calculation
 
     Pert. #  1: Fermi energy shift (Ry) =    -3.3704E-03     4.0390E-28

      iter #   1 total cpu time :  7062.9 secs   av.it.:   4.0
      thresh= 1.000E-02 alpha_mix =  0.100 |ddv_scf|^2 =  6.329E-10
 
     Pert. #  1: Fermi energy shift (Ry) =    -3.1137E-03     2.0195E-28

      iter #   2 total cpu time :  7100.6 secs   av.it.:  13.0
      thresh= 2.516E-06 alpha_mix =  0.100 |ddv_scf|^2 =  3.832E-10
 
     Pert. #  1: Fermi energy shift (Ry) =    -2.6567E-03    -1.0097E-28

      iter #   3 total cpu time :  7130.8 secs   av.it.:  14.0
      thresh= 1.958E-06 alpha_mix =  0.100 |ddv_scf|^2 =  6.865E-11
 
     Pert. #  1: Fermi energy shift (Ry) =    -2.5259E-03     6.3109E-30

      iter #   4 total cpu time :  7185.0 secs   av.it.:  14.0
      thresh= 8.286E-07 alpha_mix =  0.100 |ddv_scf|^2 =  4.252E-11
 
     Pert. #  1: Fermi energy shift (Ry) =    -2.0910E-03    -1.2622E-29

      iter #   5 total cpu time :  7225.5 secs   av.it.:  14.0
      thresh= 6.521E-07 alpha_mix =  0.100 |ddv_scf|^2 =  1.717E-12
 
     Pert. #  1: Fermi energy shift (Ry) =    -2.1492E-03    -1.2622E-29

      iter #   6 total cpu time :  7257.5 secs   av.it.:  14.0
      thresh= 1.310E-07 alpha_mix =  0.100 |ddv_scf|^2 =  3.507E-13
 
     Pert. #  1: Fermi energy shift (Ry) =    -2.1479E-03    -1.2622E-29

      iter #   7 total cpu time :  7284.3 secs   av.it.:  14.5
      thresh= 5.922E-08 alpha_mix =  0.100 |ddv_scf|^2 =  7.521E-14
 
     Pert. #  1: Fermi energy shift (Ry) =    -2.1373E-03    -1.2622E-29

      iter #   8 total cpu time :  7338.6 secs   av.it.:  15.0
      thresh= 2.742E-08 alpha_mix =  0.100 |ddv_scf|^2 =  1.780E-14
 
     Pert. #  1: Fermi energy shift (Ry) =    -2.1393E-03    -1.2622E-29

      iter #   9 total cpu time :  7389.9 secs   av.it.:  14.0
      thresh= 1.334E-08 alpha_mix =  0.100 |ddv_scf|^2 =  9.690E-15
 
     Pert. #  1: Fermi energy shift (Ry) =    -2.1544E-03    -2.5244E-29

      iter #  10 total cpu time :  7453.3 secs   av.it.:  15.0
      thresh= 9.844E-09 alpha_mix =  0.100 |ddv_scf|^2 =  9.846E-16
 
     Pert. #  1: Fermi energy shift (Ry) =    -2.1624E-03    -2.5244E-29

      iter #  11 total cpu time :  7480.6 secs   av.it.:  14.0
      thresh= 3.138E-09 alpha_mix =  0.100 |ddv_scf|^2 =  5.321E-16
 
     Pert. #  1: Fermi energy shift (Ry) =    -2.1710E-03    -2.5244E-29

      iter #  12 total cpu time :  7515.4 secs   av.it.:  14.0
      thresh= 2.307E-09 alpha_mix =  0.100 |ddv_scf|^2 =  2.090E-16
 
     Pert. #  1: Fermi energy shift (Ry) =    -2.1759E-03    -2.5244E-29

      iter #  13 total cpu time :  7551.9 secs   av.it.:  15.0
      thresh= 1.446E-09 alpha_mix =  0.100 |ddv_scf|^2 =  4.769E-17

     End of self-consistent calculation

     Convergence has been achieved 


     Representation #  12 mode #  12

     Self-consistent Calculation
 
     Pert. #  1: Fermi energy shift (Ry) =    -6.0408E-02     0.0000E+00

      iter #   1 total cpu time :  7617.1 secs   av.it.:   4.8
      thresh= 1.000E-02 alpha_mix =  0.100 |ddv_scf|^2 =  3.529E-09
 
     Pert. #  1: Fermi energy shift (Ry) =    -3.2801E-02     0.0000E+00

      iter #   2 total cpu time :  7678.6 secs   av.it.:  13.0
      thresh= 5.940E-06 alpha_mix =  0.100 |ddv_scf|^2 =  1.687E-09
 
     Pert. #  1: Fermi energy shift (Ry) =     2.1664E-02     0.0000E+00

      iter #   3 total cpu time :  7719.4 secs   av.it.:  14.0
      thresh= 4.107E-06 alpha_mix =  0.100 |ddv_scf|^2 =  6.595E-11
 
     Pert. #  1: Fermi energy shift (Ry) =     1.9144E-02     0.0000E+00

      iter #   4 total cpu time :  7754.5 secs   av.it.:  15.0
      thresh= 8.121E-07 alpha_mix =  0.100 |ddv_scf|^2 =  1.701E-11
 
     Pert. #  1: Fermi energy shift (Ry) =     1.3879E-02     0.0000E+00

      iter #   5 total cpu time :  7810.8 secs   av.it.:  14.0
      thresh= 4.125E-07 alpha_mix =  0.100 |ddv_scf|^2 =  4.193E-12
 
     Pert. #  1: Fermi energy shift (Ry) =     1.2632E-02     0.0000E+00

      iter #   6 total cpu time :  7884.8 secs   av.it.:  15.0
      thresh= 2.048E-07 alpha_mix =  0.100 |ddv_scf|^2 =  7.686E-13
 
     Pert. #  1: Fermi energy shift (Ry) =     1.2585E-02     0.0000E+00

      iter #   7 total cpu time :  7919.7 secs   av.it.:  15.0
      thresh= 8.767E-08 alpha_mix =  0.100 |ddv_scf|^2 =  1.060E-13
 
     Pert. #  1: Fermi energy shift (Ry) =     1.2556E-02     0.0000E+00

      iter #   8 total cpu time :  7968.8 secs   av.it.:  14.0
      thresh= 3.256E-08 alpha_mix =  0.100 |ddv_scf|^2 =  7.138E-14
 
     Pert. #  1: Fermi energy shift (Ry) =     1.2338E-02     0.0000E+00

      iter #   9 total cpu time :  7998.9 secs   av.it.:  15.0
      thresh= 2.672E-08 alpha_mix =  0.100 |ddv_scf|^2 =  1.321E-14
 
     Pert. #  1: Fermi energy shift (Ry) =     1.2304E-02     0.0000E+00

      iter #  10 total cpu time :  8041.2 secs   av.it.:  14.0
      thresh= 1.149E-08 alpha_mix =  0.100 |ddv_scf|^2 =  6.299E-15
 
     Pert. #  1: Fermi energy shift (Ry) =     1.2368E-02     0.0000E+00

      iter #  11 total cpu time :  8077.4 secs   av.it.:  15.0
      thresh= 7.937E-09 alpha_mix =  0.100 |ddv_scf|^2 =  1.912E-15
 
     Pert. #  1: Fermi energy shift (Ry) =     1.2391E-02     0.0000E+00

      iter #  12 total cpu time :  8108.2 secs   av.it.:  14.0
      thresh= 4.373E-09 alpha_mix =  0.100 |ddv_scf|^2 =  1.156E-15
 
     Pert. #  1: Fermi energy shift (Ry) =     1.2392E-02     0.0000E+00

      iter #  13 total cpu time :  8138.0 secs   av.it.:  15.0
      thresh= 3.400E-09 alpha_mix =  0.100 |ddv_scf|^2 =  1.888E-16
 
     Pert. #  1: Fermi energy shift (Ry) =     1.2393E-02     0.0000E+00

      iter #  14 total cpu time :  8195.8 secs   av.it.:  15.0
      thresh= 1.374E-09 alpha_mix =  0.100 |ddv_scf|^2 =  7.239E-17

     End of self-consistent calculation

     Convergence has been achieved 


     Representation #  13 mode #  13

     Self-consistent Calculation
 
     Pert. #  1: Fermi energy shift (Ry) =     7.3783E-03    -2.5244E-29

      iter #   1 total cpu time :  8263.6 secs   av.it.:   4.0
      thresh= 1.000E-02 alpha_mix =  0.100 |ddv_scf|^2 =  6.240E-10
 
     Pert. #  1: Fermi energy shift (Ry) =     2.7762E-03     9.4663E-30

      iter #   2 total cpu time :  8307.0 secs   av.it.:  13.0
      thresh= 2.498E-06 alpha_mix =  0.100 |ddv_scf|^2 =  3.751E-10
 
     Pert. #  1: Fermi energy shift (Ry) =    -8.4404E-03     6.3109E-30

      iter #   3 total cpu time :  8387.3 secs   av.it.:  14.0
      thresh= 1.937E-06 alpha_mix =  0.100 |ddv_scf|^2 =  6.657E-11
 
     Pert. #  1: Fermi energy shift (Ry) =    -1.7690E-03     2.5244E-29

      iter #   4 total cpu time :  8418.5 secs   av.it.:  14.0
      thresh= 8.159E-07 alpha_mix =  0.100 |ddv_scf|^2 =  4.478E-11
 
     Pert. #  1: Fermi energy shift (Ry) =     6.3597E-05     5.0487E-29

      iter #   5 total cpu time :  8452.0 secs   av.it.:  14.0
      thresh= 6.692E-07 alpha_mix =  0.100 |ddv_scf|^2 =  2.147E-12
 
     Pert. #  1: Fermi energy shift (Ry) =    -2.9283E-03     2.5244E-29

      iter #   6 total cpu time :  8508.2 secs   av.it.:  14.0
      thresh= 1.465E-07 alpha_mix =  0.100 |ddv_scf|^2 =  2.253E-13
 
     Pert. #  1: Fermi energy shift (Ry) =    -3.3537E-03     1.8933E-29

      iter #   7 total cpu time :  8560.5 secs   av.it.:  14.0
      thresh= 4.746E-08 alpha_mix =  0.100 |ddv_scf|^2 =  7.802E-14
 
     Pert. #  1: Fermi energy shift (Ry) =    -3.0468E-03     1.8933E-29

      iter #   8 total cpu time :  8606.6 secs   av.it.:  15.0
      thresh= 2.793E-08 alpha_mix =  0.100 |ddv_scf|^2 =  1.229E-14
 
     Pert. #  1: Fermi energy shift (Ry) =    -3.0194E-03     2.5244E-29

      iter #   9 total cpu time :  8678.0 secs   av.it.:  15.0
      thresh= 1.109E-08 alpha_mix =  0.100 |ddv_scf|^2 =  3.107E-15
 
     Pert. #  1: Fermi energy shift (Ry) =    -3.0747E-03     2.5244E-29

      iter #  10 total cpu time :  8706.6 secs   av.it.:  15.0
      thresh= 5.574E-09 alpha_mix =  0.100 |ddv_scf|^2 =  1.076E-15
 
     Pert. #  1: Fermi energy shift (Ry) =    -3.0997E-03     2.5244E-29

      iter #  11 total cpu time :  8733.2 secs   av.it.:  14.0
      thresh= 3.281E-09 alpha_mix =  0.100 |ddv_scf|^2 =  5.667E-16
 
     Pert. #  1: Fermi energy shift (Ry) =    -3.0902E-03     2.5244E-29

      iter #  12 total cpu time :  8799.3 secs   av.it.:  15.0
      thresh= 2.381E-09 alpha_mix =  0.100 |ddv_scf|^2 =  4.895E-17

     End of self-consistent calculation

     Convergence has been achieved 


     Representation #  14 mode #  14

     Self-consistent Calculation
 
     Pert. #  1: Fermi energy shift (Ry) =    -3.0636E-02     3.7865E-29

      iter #   1 total cpu time :  8854.5 secs   av.it.:   4.0
      thresh= 1.000E-02 alpha_mix =  0.100 |ddv_scf|^2 =  6.190E-10
 
     Pert. #  1: Fermi energy shift (Ry) =    -2.1314E-02    -1.0097E-28

      iter #   2 total cpu time :  8882.2 secs   av.it.:  13.0
      thresh= 2.488E-06 alpha_mix =  0.100 |ddv_scf|^2 =  3.695E-10
 
     Pert. #  1: Fermi energy shift (Ry) =     1.9459E-03    -4.0390E-28

      iter #   3 total cpu time :  8909.5 secs   av.it.:  14.2
      thresh= 1.922E-06 alpha_mix =  0.100 |ddv_scf|^2 =  6.526E-11
 
     Pert. #  1: Fermi energy shift (Ry) =    -8.1142E-03    -2.0195E-28

      iter #   4 total cpu time :  8943.0 secs   av.it.:  14.0
      thresh= 8.078E-07 alpha_mix =  0.100 |ddv_scf|^2 =  4.097E-11
 
     Pert. #  1: Fermi energy shift (Ry) =    -7.2431E-03    -2.0195E-28

      iter #   5 total cpu time :  8971.2 secs   av.it.:  14.0
      thresh= 6.401E-07 alpha_mix =  0.100 |ddv_scf|^2 =  2.749E-12
 
     Pert. #  1: Fermi energy shift (Ry) =    -6.0305E-03    -2.0195E-28

      iter #   6 total cpu time :  9002.0 secs   av.it.:  14.0
      thresh= 1.658E-07 alpha_mix =  0.100 |ddv_scf|^2 =  5.254E-13
 
     Pert. #  1: Fermi energy shift (Ry) =    -4.8625E-03    -2.0195E-28

      iter #   7 total cpu time :  9038.3 secs   av.it.:  14.0
      thresh= 7.249E-08 alpha_mix =  0.100 |ddv_scf|^2 =  9.960E-14
 
     Pert. #  1: Fermi energy shift (Ry) =    -4.6024E-03    -2.0195E-28

      iter #   8 total cpu time :  9082.2 secs   av.it.:  15.0
      thresh= 3.156E-08 alpha_mix =  0.100 |ddv_scf|^2 =  1.998E-14
 
     Pert. #  1: Fermi energy shift (Ry) =    -4.7209E-03    -2.0195E-28

      iter #   9 total cpu time :  9143.9 secs   av.it.:  14.0
      thresh= 1.414E-08 alpha_mix =  0.100 |ddv_scf|^2 =  1.023E-14
 
     Pert. #  1: Fermi energy shift (Ry) =    -4.8812E-03    -2.0195E-28

      iter #  10 total cpu time :  9189.3 secs   av.it.:  15.0
      thresh= 1.011E-08 alpha_mix =  0.100 |ddv_scf|^2 =  2.000E-15
 
     Pert. #  1: Fermi energy shift (Ry) =    -4.8371E-03    -2.0195E-28

      iter #  11 total cpu time :  9253.2 secs   av.it.:  15.0
      thresh= 4.473E-09 alpha_mix =  0.100 |ddv_scf|^2 =  5.362E-16
 
     Pert. #  1: Fermi energy shift (Ry) =    -4.8191E-03    -2.0195E-28

      iter #  12 total cpu time :  9281.1 secs   av.it.:  14.0
      thresh= 2.316E-09 alpha_mix =  0.100 |ddv_scf|^2 =  2.029E-16
 
     Pert. #  1: Fermi energy shift (Ry) =    -4.8133E-03    -2.0195E-28

      iter #  13 total cpu time :  9322.3 secs   av.it.:  15.0
      thresh= 1.424E-09 alpha_mix =  0.100 |ddv_scf|^2 =  5.095E-17

     End of self-consistent calculation

     Convergence has been achieved 


     Representation #  15 mode #  15

     Self-consistent Calculation
 
     Pert. #  1: Fermi energy shift (Ry) =     1.1187E-01     4.0390E-28

      iter #   1 total cpu time :  9402.5 secs   av.it.:   4.8
      thresh= 1.000E-02 alpha_mix =  0.100 |ddv_scf|^2 =  3.632E-09
 
     Pert. #  1: Fermi energy shift (Ry) =     5.8801E-02     2.0195E-28

      iter #   2 total cpu time :  9442.2 secs   av.it.:  13.0
      thresh= 6.027E-06 alpha_mix =  0.100 |ddv_scf|^2 =  1.702E-09
 
     Pert. #  1: Fermi energy shift (Ry) =    -4.0503E-02     1.2622E-29

      iter #   3 total cpu time :  9468.8 secs   av.it.:  14.0
      thresh= 4.126E-06 alpha_mix =  0.100 |ddv_scf|^2 =  7.956E-11
 
     Pert. #  1: Fermi energy shift (Ry) =    -3.4582E-02     2.5244E-29

      iter #   4 total cpu time :  9510.4 secs   av.it.:  15.0
      thresh= 8.920E-07 alpha_mix =  0.100 |ddv_scf|^2 =  1.838E-11
 
     Pert. #  1: Fermi energy shift (Ry) =    -2.1627E-02     5.0487E-29

      iter #   5 total cpu time :  9559.4 secs   av.it.:  14.0
      thresh= 4.287E-07 alpha_mix =  0.100 |ddv_scf|^2 =  7.324E-12
 
     Pert. #  1: Fermi energy shift (Ry) =    -2.0279E-02     5.0487E-29

      iter #   6 total cpu time :  9588.9 secs   av.it.:  15.0
      thresh= 2.706E-07 alpha_mix =  0.100 |ddv_scf|^2 =  1.246E-12
 
     Pert. #  1: Fermi energy shift (Ry) =    -2.0065E-02     5.0487E-29

      iter #   7 total cpu time :  9631.9 secs   av.it.:  15.0
      thresh= 1.116E-07 alpha_mix =  0.100 |ddv_scf|^2 =  1.281E-13
 
     Pert. #  1: Fermi energy shift (Ry) =    -2.0009E-02     5.0487E-29

      iter #   8 total cpu time :  9658.6 secs   av.it.:  13.0
      thresh= 3.580E-08 alpha_mix =  0.100 |ddv_scf|^2 =  8.939E-14
 
     Pert. #  1: Fermi energy shift (Ry) =    -1.9648E-02     5.0487E-29

      iter #   9 total cpu time :  9730.4 secs   av.it.:  15.0
      thresh= 2.990E-08 alpha_mix =  0.100 |ddv_scf|^2 =  1.302E-14
 
     Pert. #  1: Fermi energy shift (Ry) =    -1.9592E-02     5.0487E-29

      iter #  10 total cpu time :  9801.5 secs   av.it.:  14.0
      thresh= 1.141E-08 alpha_mix =  0.100 |ddv_scf|^2 =  6.468E-15
 
     Pert. #  1: Fermi energy shift (Ry) =    -1.9656E-02     5.0487E-29

      iter #  11 total cpu time :  9829.7 secs   av.it.:  14.8
      thresh= 8.042E-09 alpha_mix =  0.100 |ddv_scf|^2 =  2.606E-15
 
     Pert. #  1: Fermi energy shift (Ry) =    -1.9722E-02     5.0487E-29

      iter #  12 total cpu time :  9856.6 secs   av.it.:  14.0
      thresh= 5.105E-09 alpha_mix =  0.100 |ddv_scf|^2 =  1.522E-15
 
     Pert. #  1: Fermi energy shift (Ry) =    -1.9788E-02     5.0487E-29

      iter #  13 total cpu time :  9885.7 secs   av.it.:  16.0
      thresh= 3.901E-09 alpha_mix =  0.100 |ddv_scf|^2 =  3.143E-16
 
     Pert. #  1: Fermi energy shift (Ry) =    -1.9802E-02     5.0487E-29

      iter #  14 total cpu time :  9913.4 secs   av.it.:  14.0
      thresh= 1.773E-09 alpha_mix =  0.100 |ddv_scf|^2 =  1.828E-16
 
     Pert. #  1: Fermi energy shift (Ry) =    -1.9811E-02     5.0487E-29

      iter #  15 total cpu time :  9965.7 secs   av.it.:  14.0
      thresh= 1.352E-09 alpha_mix =  0.100 |ddv_scf|^2 =  1.027E-16
 
     Pert. #  1: Fermi energy shift (Ry) =    -1.9810E-02     5.0487E-29

      iter #  16 total cpu time :  9999.4 secs   av.it.:  15.0
      thresh= 1.013E-09 alpha_mix =  0.100 |ddv_scf|^2 =  2.425E-17

     End of self-consistent calculation

     Convergence has been achieved 


     Representation #  16 mode #  16

     Self-consistent Calculation
 
     Pert. #  1: Fermi energy shift (Ry) =     1.6591E-03     1.0097E-27

      iter #   1 total cpu time : 10030.9 secs   av.it.:   4.0
      thresh= 1.000E-02 alpha_mix =  0.100 |ddv_scf|^2 =  6.813E-10
 
     Pert. #  1: Fermi energy shift (Ry) =    -1.2607E-03     6.0585E-28

      iter #   2 total cpu time : 10059.1 secs   av.it.:  13.0
      thresh= 2.610E-06 alpha_mix =  0.100 |ddv_scf|^2 =  3.953E-10
 
     Pert. #  1: Fermi energy shift (Ry) =    -6.6246E-03    -3.5341E-28

      iter #   3 total cpu time : 10086.2 secs   av.it.:  14.0
      thresh= 1.988E-06 alpha_mix =  0.100 |ddv_scf|^2 =  7.537E-11
 
     Pert. #  1: Fermi energy shift (Ry) =    -1.8536E-03    -3.7865E-29

      iter #   4 total cpu time : 10122.0 secs   av.it.:  14.0
      thresh= 8.682E-07 alpha_mix =  0.100 |ddv_scf|^2 =  4.692E-11
 
     Pert. #  1: Fermi energy shift (Ry) =    -2.5534E-03    -3.5341E-28

      iter #   5 total cpu time : 10189.2 secs   av.it.:  14.0
      thresh= 6.850E-07 alpha_mix =  0.100 |ddv_scf|^2 =  8.807E-12
 
     Pert. #  1: Fermi energy shift (Ry) =    -2.1040E-03    -1.7670E-28

      iter #   6 total cpu time : 10218.9 secs   av.it.:  14.0
      thresh= 2.968E-07 alpha_mix =  0.100 |ddv_scf|^2 =  6.265E-13
 
     Pert. #  1: Fermi energy shift (Ry) =    -3.0387E-03    -2.0195E-28

      iter #   7 total cpu time : 10250.2 secs   av.it.:  14.0
      thresh= 7.915E-08 alpha_mix =  0.100 |ddv_scf|^2 =  1.107E-13
 
     Pert. #  1: Fermi energy shift (Ry) =    -3.3572E-03    -2.0195E-28

      iter #   8 total cpu time : 10336.3 secs   av.it.:  15.0
      thresh= 3.327E-08 alpha_mix =  0.100 |ddv_scf|^2 =  2.427E-14
 
     Pert. #  1: Fermi energy shift (Ry) =    -3.2013E-03    -2.0195E-28

      iter #   9 total cpu time : 10373.2 secs   av.it.:  14.0
      thresh= 1.558E-08 alpha_mix =  0.100 |ddv_scf|^2 =  1.066E-14
 
     Pert. #  1: Fermi energy shift (Ry) =    -3.0648E-03    -2.0195E-28

      iter #  10 total cpu time : 10404.2 secs   av.it.:  15.0
      thresh= 1.032E-08 alpha_mix =  0.100 |ddv_scf|^2 =  4.229E-15
 
     Pert. #  1: Fermi energy shift (Ry) =    -3.0888E-03    -2.0195E-28

      iter #  11 total cpu time : 10433.9 secs   av.it.:  15.0
      thresh= 6.503E-09 alpha_mix =  0.100 |ddv_scf|^2 =  1.432E-15
 
     Pert. #  1: Fermi energy shift (Ry) =    -3.1050E-03    -2.0195E-28

      iter #  12 total cpu time : 10488.5 secs   av.it.:  13.0
      thresh= 3.785E-09 alpha_mix =  0.100 |ddv_scf|^2 =  8.904E-16
 
     Pert. #  1: Fermi energy shift (Ry) =    -3.1285E-03    -2.0195E-28

      iter #  13 total cpu time : 10564.1 secs   av.it.:  15.0
      thresh= 2.984E-09 alpha_mix =  0.100 |ddv_scf|^2 =  1.223E-16
 
     Pert. #  1: Fermi energy shift (Ry) =    -3.1288E-03    -2.0195E-28

      iter #  14 total cpu time : 10591.7 secs   av.it.:  13.0
      thresh= 1.106E-09 alpha_mix =  0.100 |ddv_scf|^2 =  6.547E-17

     End of self-consistent calculation

     Convergence has been achieved 


     Representation #  17 mode #  17

     Self-consistent Calculation
 
     Pert. #  1: Fermi energy shift (Ry) =     1.0767E-01    -4.0390E-28

      iter #   1 total cpu time : 10638.2 secs   av.it.:   4.0
      thresh= 1.000E-02 alpha_mix =  0.100 |ddv_scf|^2 =  7.517E-10
 
     Pert. #  1: Fermi energy shift (Ry) =     8.1208E-02    -2.0195E-28

      iter #   2 total cpu time : 10709.4 secs   av.it.:  13.0
      thresh= 2.742E-06 alpha_mix =  0.100 |ddv_scf|^2 =  4.264E-10
 
     Pert. #  1: Fermi energy shift (Ry) =     2.1988E-02     1.5146E-28

      iter #   3 total cpu time : 10773.8 secs   av.it.:  14.0
      thresh= 2.065E-06 alpha_mix =  0.100 |ddv_scf|^2 =  8.290E-11
 
     Pert. #  1: Fermi energy shift (Ry) =     2.9591E-02     5.0487E-29

      iter #   4 total cpu time : 10838.9 secs   av.it.:  13.0
      thresh= 9.105E-07 alpha_mix =  0.100 |ddv_scf|^2 =  4.705E-11
 
     Pert. #  1: Fermi energy shift (Ry) =     1.5593E-02     1.0097E-28

      iter #   5 total cpu time : 10873.6 secs   av.it.:  14.0
      thresh= 6.859E-07 alpha_mix =  0.100 |ddv_scf|^2 =  1.220E-11
 
     Pert. #  1: Fermi energy shift (Ry) =     2.6068E-02     3.7865E-29

      iter #   6 total cpu time : 10942.6 secs   av.it.:  14.0
      thresh= 3.492E-07 alpha_mix =  0.100 |ddv_scf|^2 =  8.555E-13
 
     Pert. #  1: Fermi energy shift (Ry) =     2.5724E-02     5.0487E-29

      iter #   7 total cpu time : 11017.8 secs   av.it.:  15.0
      thresh= 9.249E-08 alpha_mix =  0.100 |ddv_scf|^2 =  1.057E-13
 
     Pert. #  1: Fermi energy shift (Ry) =     2.6070E-02     5.0487E-29

      iter #   8 total cpu time : 11055.5 secs   av.it.:  15.0
      thresh= 3.251E-08 alpha_mix =  0.100 |ddv_scf|^2 =  3.646E-14
 
     Pert. #  1: Fermi energy shift (Ry) =     2.6039E-02     5.0487E-29

      iter #   9 total cpu time : 11090.5 secs   av.it.:  15.0
      thresh= 1.910E-08 alpha_mix =  0.100 |ddv_scf|^2 =  7.319E-15
 
     Pert. #  1: Fermi energy shift (Ry) =     2.5918E-02     5.0487E-29

      iter #  10 total cpu time : 11125.2 secs   av.it.:  15.0
      thresh= 8.555E-09 alpha_mix =  0.100 |ddv_scf|^2 =  3.114E-15
 
     Pert. #  1: Fermi energy shift (Ry) =     2.5870E-02     5.0487E-29

      iter #  11 total cpu time : 11166.9 secs   av.it.:  14.0
      thresh= 5.580E-09 alpha_mix =  0.100 |ddv_scf|^2 =  1.675E-15
 
     Pert. #  1: Fermi energy shift (Ry) =     2.5885E-02     5.0487E-29

      iter #  12 total cpu time : 11196.5 secs   av.it.:  14.0
      thresh= 4.092E-09 alpha_mix =  0.100 |ddv_scf|^2 =  7.754E-16
 
     Pert. #  1: Fermi energy shift (Ry) =     2.5861E-02     5.0487E-29

      iter #  13 total cpu time : 11228.7 secs   av.it.:  14.0
      thresh= 2.785E-09 alpha_mix =  0.100 |ddv_scf|^2 =  2.662E-16
 
     Pert. #  1: Fermi energy shift (Ry) =     2.5843E-02     5.0487E-29

      iter #  14 total cpu time : 11289.9 secs   av.it.:  14.0
      thresh= 1.632E-09 alpha_mix =  0.100 |ddv_scf|^2 =  1.269E-16
 
     Pert. #  1: Fermi energy shift (Ry) =     2.5852E-02     5.0487E-29

      iter #  15 total cpu time : 11348.5 secs   av.it.:  14.2
      thresh= 1.126E-09 alpha_mix =  0.100 |ddv_scf|^2 =  3.770E-17

     End of self-consistent calculation

     Convergence has been achieved 


     Representation #  18 mode #  18

     Self-consistent Calculation
 
     Pert. #  1: Fermi energy shift (Ry) =    -5.4771E-03     4.0390E-28

      iter #   1 total cpu time : 11410.7 secs   av.it.:   4.0
      thresh= 1.000E-02 alpha_mix =  0.100 |ddv_scf|^2 =  6.711E-10
 
     Pert. #  1: Fermi energy shift (Ry) =    -2.8471E-03     2.0195E-28

      iter #   2 total cpu time : 11437.5 secs   av.it.:  13.0
      thresh= 2.591E-06 alpha_mix =  0.100 |ddv_scf|^2 =  3.998E-10
 
     Pert. #  1: Fermi energy shift (Ry) =     4.1765E-03    -1.5146E-28

      iter #   3 total cpu time : 11503.2 secs   av.it.:  14.0
      thresh= 2.000E-06 alpha_mix =  0.100 |ddv_scf|^2 =  7.444E-11
 
     Pert. #  1: Fermi energy shift (Ry) =     1.3927E-03    -1.8933E-29

      iter #   4 total cpu time : 11575.3 secs   av.it.:  14.0
      thresh= 8.628E-07 alpha_mix =  0.100 |ddv_scf|^2 =  4.727E-11
 
     Pert. #  1: Fermi energy shift (Ry) =     2.0967E-03    -5.0487E-29

      iter #   5 total cpu time : 11608.7 secs   av.it.:  14.0
      thresh= 6.875E-07 alpha_mix =  0.100 |ddv_scf|^2 =  3.188E-12
 
     Pert. #  1: Fermi energy shift (Ry) =     1.1279E-03    -3.7865E-29

      iter #   6 total cpu time : 11671.6 secs   av.it.:  15.0
      thresh= 1.786E-07 alpha_mix =  0.100 |ddv_scf|^2 =  6.801E-13
 
     Pert. #  1: Fermi energy shift (Ry) =     1.4040E-03    -5.0487E-29

      iter #   7 total cpu time : 11709.8 secs   av.it.:  14.2
      thresh= 8.247E-08 alpha_mix =  0.100 |ddv_scf|^2 =  1.022E-13
 
     Pert. #  1: Fermi energy shift (Ry) =     1.5472E-03    -5.0487E-29

      iter #   8 total cpu time : 11742.4 secs   av.it.:  15.0
      thresh= 3.197E-08 alpha_mix =  0.100 |ddv_scf|^2 =  2.367E-14
 
     Pert. #  1: Fermi energy shift (Ry) =     1.6287E-03    -5.0487E-29

      iter #   9 total cpu time : 11797.7 secs   av.it.:  14.0
      thresh= 1.539E-08 alpha_mix =  0.100 |ddv_scf|^2 =  1.220E-14
 
     Pert. #  1: Fermi energy shift (Ry) =     1.7613E-03    -5.0487E-29

      iter #  10 total cpu time : 11869.4 secs   av.it.:  15.0
      thresh= 1.104E-08 alpha_mix =  0.100 |ddv_scf|^2 =  2.703E-15
 
     Pert. #  1: Fermi energy shift (Ry) =     1.7525E-03    -5.0487E-29

      iter #  11 total cpu time : 11921.9 secs   av.it.:  14.0
      thresh= 5.199E-09 alpha_mix =  0.100 |ddv_scf|^2 =  1.523E-15
 
     Pert. #  1: Fermi energy shift (Ry) =     1.7452E-03    -5.0487E-29

      iter #  12 total cpu time : 11987.2 secs   av.it.:  14.0
      thresh= 3.903E-09 alpha_mix =  0.100 |ddv_scf|^2 =  9.423E-16
 
     Pert. #  1: Fermi energy shift (Ry) =     1.7443E-03    -5.0487E-29

      iter #  13 total cpu time : 12058.1 secs   av.it.:  15.0
      thresh= 3.070E-09 alpha_mix =  0.100 |ddv_scf|^2 =  2.376E-16
 
     Pert. #  1: Fermi energy shift (Ry) =     1.7467E-03    -5.0487E-29

      iter #  14 total cpu time : 12096.3 secs   av.it.:  13.8
      thresh= 1.542E-09 alpha_mix =  0.100 |ddv_scf|^2 =  1.158E-16
 
     Pert. #  1: Fermi energy shift (Ry) =     1.7464E-03    -5.0487E-29

      iter #  15 total cpu time : 12166.6 secs   av.it.:  14.0
      thresh= 1.076E-09 alpha_mix =  0.100 |ddv_scf|^2 =  4.946E-17

     End of self-consistent calculation

     Convergence has been achieved 


     Representation #  19 mode #  19

     Self-consistent Calculation
 
     Pert. #  1: Fermi energy shift (Ry) =     1.6765E-02    -2.2719E-28

      iter #   1 total cpu time : 12220.7 secs   av.it.:   4.5
      thresh= 1.000E-02 alpha_mix =  0.100 |ddv_scf|^2 =  3.510E-09
 
     Pert. #  1: Fermi energy shift (Ry) =     8.1280E-03    -8.0779E-28

      iter #   2 total cpu time : 12253.2 secs   av.it.:  13.0
      thresh= 5.925E-06 alpha_mix =  0.100 |ddv_scf|^2 =  1.682E-09
 
     Pert. #  1: Fermi energy shift (Ry) =    -8.6369E-03    -1.8175E-27

      iter #   3 total cpu time : 12306.4 secs   av.it.:  14.0
      thresh= 4.101E-06 alpha_mix =  0.100 |ddv_scf|^2 =  6.457E-11
 
     Pert. #  1: Fermi energy shift (Ry) =    -6.4182E-03    -1.4136E-27

      iter #   4 total cpu time : 12362.0 secs   av.it.:  15.0
      thresh= 8.035E-07 alpha_mix =  0.100 |ddv_scf|^2 =  2.235E-11
 
     Pert. #  1: Fermi energy shift (Ry) =    -4.9299E-03    -1.2117E-27

      iter #   5 total cpu time : 12398.6 secs   av.it.:  14.0
      thresh= 4.727E-07 alpha_mix =  0.100 |ddv_scf|^2 =  4.611E-12
 
     Pert. #  1: Fermi energy shift (Ry) =    -3.9405E-03    -1.0097E-27

      iter #   6 total cpu time : 12458.6 secs   av.it.:  15.0
      thresh= 2.147E-07 alpha_mix =  0.100 |ddv_scf|^2 =  7.019E-13
 
     Pert. #  1: Fermi energy shift (Ry) =    -4.1532E-03    -1.0097E-27

      iter #   7 total cpu time : 12510.7 secs   av.it.:  15.0
      thresh= 8.378E-08 alpha_mix =  0.100 |ddv_scf|^2 =  1.018E-13
 
     Pert. #  1: Fermi energy shift (Ry) =    -4.1863E-03    -1.0097E-27

      iter #   8 total cpu time : 12572.6 secs   av.it.:  14.0
      thresh= 3.190E-08 alpha_mix =  0.100 |ddv_scf|^2 =  6.561E-14
 
     Pert. #  1: Fermi energy shift (Ry) =    -4.1666E-03    -1.0097E-27

      iter #   9 total cpu time : 12655.6 secs   av.it.:  15.0
      thresh= 2.562E-08 alpha_mix =  0.100 |ddv_scf|^2 =  7.304E-15
 
     Pert. #  1: Fermi energy shift (Ry) =    -4.1679E-03    -1.0097E-27

      iter #  10 total cpu time : 12685.3 secs   av.it.:  14.0
      thresh= 8.547E-09 alpha_mix =  0.100 |ddv_scf|^2 =  3.619E-15
 
     Pert. #  1: Fermi energy shift (Ry) =    -4.1753E-03    -1.0097E-27

      iter #  11 total cpu time : 12722.7 secs   av.it.:  15.0
      thresh= 6.016E-09 alpha_mix =  0.100 |ddv_scf|^2 =  1.150E-15
 
     Pert. #  1: Fermi energy shift (Ry) =    -4.1750E-03    -1.0097E-27

      iter #  12 total cpu time : 12806.8 secs   av.it.:  14.0
      thresh= 3.391E-09 alpha_mix =  0.100 |ddv_scf|^2 =  5.503E-16
 
     Pert. #  1: Fermi energy shift (Ry) =    -4.1674E-03    -1.0097E-27

      iter #  13 total cpu time : 12867.4 secs   av.it.:  15.0
      thresh= 2.346E-09 alpha_mix =  0.100 |ddv_scf|^2 =  1.181E-16
 
     Pert. #  1: Fermi energy shift (Ry) =    -4.1662E-03    -1.0097E-27

      iter #  14 total cpu time : 12900.9 secs   av.it.:  14.0
      thresh= 1.087E-09 alpha_mix =  0.100 |ddv_scf|^2 =  5.914E-17

     End of self-consistent calculation

     Convergence has been achieved 


     Representation #  20 mode #  20

     Self-consistent Calculation
 
     Pert. #  1: Fermi energy shift (Ry) =     1.9728E-02     0.0000E+00

      iter #   1 total cpu time : 12958.2 secs   av.it.:   4.0
      thresh= 1.000E-02 alpha_mix =  0.100 |ddv_scf|^2 =  7.538E-10
 
     Pert. #  1: Fermi energy shift (Ry) =     1.3681E-02     0.0000E+00

      iter #   2 total cpu time : 12984.4 secs   av.it.:  13.0
      thresh= 2.746E-06 alpha_mix =  0.100 |ddv_scf|^2 =  4.303E-10
 
     Pert. #  1: Fermi energy shift (Ry) =     6.3451E-04     0.0000E+00

      iter #   3 total cpu time : 13018.3 secs   av.it.:  14.2
      thresh= 2.074E-06 alpha_mix =  0.100 |ddv_scf|^2 =  7.949E-11
 
     Pert. #  1: Fermi energy shift (Ry) =     1.0192E-02     0.0000E+00

      iter #   4 total cpu time : 13084.4 secs   av.it.:  14.0
      thresh= 8.916E-07 alpha_mix =  0.100 |ddv_scf|^2 =  5.147E-11
 
     Pert. #  1: Fermi energy shift (Ry) =     9.6589E-03     0.0000E+00

      iter #   5 total cpu time : 13117.2 secs   av.it.:  14.0
      thresh= 7.174E-07 alpha_mix =  0.100 |ddv_scf|^2 =  6.130E-12
 
     Pert. #  1: Fermi energy shift (Ry) =     4.8961E-03     0.0000E+00

      iter #   6 total cpu time : 13146.9 secs   av.it.:  14.0
      thresh= 2.476E-07 alpha_mix =  0.100 |ddv_scf|^2 =  6.245E-13
 
     Pert. #  1: Fermi energy shift (Ry) =     4.4665E-03     0.0000E+00

      iter #   7 total cpu time : 13201.3 secs   av.it.:  14.2
      thresh= 7.903E-08 alpha_mix =  0.100 |ddv_scf|^2 =  1.164E-13
 
     Pert. #  1: Fermi energy shift (Ry) =     4.3130E-03     0.0000E+00

      iter #   8 total cpu time : 13272.5 secs   av.it.:  15.0
      thresh= 3.411E-08 alpha_mix =  0.100 |ddv_scf|^2 =  3.387E-14
 
     Pert. #  1: Fermi energy shift (Ry) =     4.5323E-03     0.0000E+00

      iter #   9 total cpu time : 13303.8 secs   av.it.:  15.0
      thresh= 1.840E-08 alpha_mix =  0.100 |ddv_scf|^2 =  1.460E-14
 
     Pert. #  1: Fermi energy shift (Ry) =     4.7889E-03     0.0000E+00

      iter #  10 total cpu time : 13373.1 secs   av.it.:  15.0
      thresh= 1.208E-08 alpha_mix =  0.100 |ddv_scf|^2 =  3.236E-15
 
     Pert. #  1: Fermi energy shift (Ry) =     4.7822E-03     0.0000E+00

      iter #  11 total cpu time : 13406.7 secs   av.it.:  13.0
      thresh= 5.689E-09 alpha_mix =  0.100 |ddv_scf|^2 =  1.982E-15
 
     Pert. #  1: Fermi energy shift (Ry) =     4.7655E-03     0.0000E+00

      iter #  12 total cpu time : 13442.7 secs   av.it.:  15.0
      thresh= 4.452E-09 alpha_mix =  0.100 |ddv_scf|^2 =  2.192E-16
 
     Pert. #  1: Fermi energy shift (Ry) =     4.7960E-03     0.0000E+00

      iter #  13 total cpu time : 13479.4 secs   av.it.:  14.0
      thresh= 1.481E-09 alpha_mix =  0.100 |ddv_scf|^2 =  7.773E-17

     End of self-consistent calculation

     Convergence has been achieved 


     Representation #  21 mode #  21

     Self-consistent Calculation
 
     Pert. #  1: Fermi energy shift (Ry) =    -2.9906E-02     0.0000E+00

      iter #   1 total cpu time : 13518.1 secs   av.it.:   4.0
      thresh= 1.000E-02 alpha_mix =  0.100 |ddv_scf|^2 =  2.295E-09
 
     Pert. #  1: Fermi energy shift (Ry) =    -2.2249E-02     0.0000E+00

      iter #   2 total cpu time : 13543.1 secs   av.it.:  12.0
      thresh= 4.790E-06 alpha_mix =  0.100 |ddv_scf|^2 =  1.156E-09
 
     Pert. #  1: Fermi energy shift (Ry) =    -7.4032E-03     0.0000E+00

      iter #   3 total cpu time : 13579.0 secs   av.it.:  14.0
      thresh= 3.400E-06 alpha_mix =  0.100 |ddv_scf|^2 =  1.398E-10
 
     Pert. #  1: Fermi energy shift (Ry) =    -8.9824E-03     0.0000E+00

      iter #   4 total cpu time : 13607.2 secs   av.it.:  14.0
      thresh= 1.182E-06 alpha_mix =  0.100 |ddv_scf|^2 =  2.795E-11
 
     Pert. #  1: Fermi energy shift (Ry) =    -9.8989E-03     0.0000E+00

      iter #   5 total cpu time : 13639.8 secs   av.it.:  13.0
      thresh= 5.286E-07 alpha_mix =  0.100 |ddv_scf|^2 =  1.478E-11
 
     Pert. #  1: Fermi energy shift (Ry) =    -9.9769E-03     0.0000E+00

      iter #   6 total cpu time : 13673.0 secs   av.it.:  14.8
      thresh= 3.845E-07 alpha_mix =  0.100 |ddv_scf|^2 =  6.178E-13
 
     Pert. #  1: Fermi energy shift (Ry) =    -9.0459E-03     0.0000E+00

      iter #   7 total cpu time : 13716.9 secs   av.it.:  15.0
      thresh= 7.860E-08 alpha_mix =  0.100 |ddv_scf|^2 =  1.186E-13
 
     Pert. #  1: Fermi energy shift (Ry) =    -8.7426E-03     0.0000E+00

      iter #   8 total cpu time : 13777.4 secs   av.it.:  15.0
      thresh= 3.444E-08 alpha_mix =  0.100 |ddv_scf|^2 =  3.275E-14
 
     Pert. #  1: Fermi energy shift (Ry) =    -9.0138E-03     0.0000E+00

      iter #   9 total cpu time : 13865.7 secs   av.it.:  15.0
      thresh= 1.810E-08 alpha_mix =  0.100 |ddv_scf|^2 =  4.443E-15
 
[...]
     freq (   75) =      22.482987 [THz] =     749.951712 [cm-1]
     freq (   76) =      22.675268 [THz] =     756.365535 [cm-1]
     freq (   77) =      22.731905 [THz] =     758.254733 [cm-1]
     freq (   78) =      22.741685 [THz] =     758.580969 [cm-1]
     freq (   79) =      22.774868 [THz] =     759.687829 [cm-1]
     freq (   80) =      22.782450 [THz] =     759.940746 [cm-1]
     freq (   81) =      23.270252 [THz] =     776.212057 [cm-1]
     freq (   82) =      24.155231 [THz] =     805.731788 [cm-1]
     freq (   83) =      25.220018 [THz] =     841.249253 [cm-1]
     freq (   84) =      25.320044 [THz] =     844.585744 [cm-1]
     freq (   85) =      25.428221 [THz] =     848.194165 [cm-1]
     freq (   86) =      25.577519 [THz] =     853.174200 [cm-1]
     freq (   87) =      25.667676 [THz] =     856.181502 [cm-1]
     freq (   88) =      25.768432 [THz] =     859.542380 [cm-1]
     freq (   89) =      30.367622 [THz] =    1012.954824 [cm-1]
     freq (   90) =      30.461235 [THz] =    1016.077438 [cm-1]
     freq (   91) =      30.523029 [THz] =    1018.138650 [cm-1]
     freq (   92) =      30.880945 [THz] =    1030.077460 [cm-1]
     freq (   93) =      30.932241 [THz] =    1031.788490 [cm-1]
     freq (   94) =      31.090562 [THz] =    1037.069518 [cm-1]
     freq (   95) =      32.363504 [THz] =    1079.530286 [cm-1]
     freq (   96) =      32.424540 [THz] =    1081.566220 [cm-1]
     freq (   97) =      32.449447 [THz] =    1082.397056 [cm-1]
     freq (   98) =      32.735772 [THz] =    1091.947815 [cm-1]
     freq (   99) =      32.770234 [THz] =    1093.097345 [cm-1]
     freq (  100) =      33.101278 [THz] =    1104.139783 [cm-1]
     freq (  101) =      35.435010 [THz] =    1181.984704 [cm-1]
     freq (  102) =      36.122623 [THz] =    1204.921008 [cm-1]
     freq (  103) =      36.162737 [THz] =    1206.259062 [cm-1]
     freq (  104) =      36.236228 [THz] =    1208.710450 [cm-1]
     freq (  105) =      36.304292 [THz] =    1210.980837 [cm-1]
     freq (  106) =      36.348371 [THz] =    1212.451134 [cm-1]
     freq (  107) =      36.929226 [THz] =    1231.826370 [cm-1]
     freq (  108) =      37.005664 [THz] =    1234.376068 [cm-1]
     freq (  109) =      37.054570 [THz] =    1236.007405 [cm-1]
     freq (  110) =      37.085224 [THz] =    1237.029917 [cm-1]
     freq (  111) =      37.148496 [THz] =    1239.140449 [cm-1]
     freq (  112) =      37.196893 [THz] =    1240.754809 [cm-1]
     freq (  113) =      37.359330 [THz] =    1246.173100 [cm-1]
     freq (  114) =      37.430849 [THz] =    1248.558731 [cm-1]
     freq (  115) =      37.515273 [THz] =    1251.374819 [cm-1]
     freq (  116) =      37.567005 [THz] =    1253.100408 [cm-1]
     freq (  117) =      37.583483 [THz] =    1253.650051 [cm-1]
     freq (  118) =      37.627061 [THz] =    1255.103655 [cm-1]
     freq (  119) =      37.769383 [THz] =    1259.850992 [cm-1]
     freq (  120) =      37.801825 [THz] =    1260.933147 [cm-1]
     freq (  121) =      37.962106 [THz] =    1266.279551 [cm-1]
     freq (  122) =      38.098869 [THz] =    1270.841478 [cm-1]
     freq (  123) =      38.275031 [THz] =    1276.717624 [cm-1]
     freq (  124) =      38.414220 [THz] =    1281.360465 [cm-1]
     freq (  125) =      38.846280 [THz] =    1295.772423 [cm-1]
     freq (  126) =      38.908874 [THz] =    1297.860351 [cm-1]
     freq (  127) =      39.140064 [THz] =    1305.572006 [cm-1]
     freq (  128) =      39.305113 [THz] =    1311.077456 [cm-1]
     freq (  129) =      39.536415 [THz] =    1318.792841 [cm-1]
     freq (  130) =      39.702724 [THz] =    1324.340330 [cm-1]
     freq (  131) =      40.039570 [THz] =    1335.576293 [cm-1]
     freq (  132) =      40.358169 [THz] =    1346.203623 [cm-1]
     freq (  133) =      40.612179 [THz] =    1354.676489 [cm-1]
     freq (  134) =      40.639078 [THz] =    1355.573744 [cm-1]
     freq (  135) =      40.851174 [THz] =    1362.648500 [cm-1]
     freq (  136) =      41.007123 [THz] =    1367.850374 [cm-1]
     freq (  137) =      41.184770 [THz] =    1373.776049 [cm-1]
     freq (  138) =      41.305564 [THz] =    1377.805296 [cm-1]
     freq (  139) =      41.574226 [THz] =    1386.766922 [cm-1]
     freq (  140) =      41.751296 [THz] =    1392.673339 [cm-1]
     freq (  141) =      41.801100 [THz] =    1394.334608 [cm-1]
     freq (  142) =      41.863751 [THz] =    1396.424437 [cm-1]
     freq (  143) =      42.297264 [THz] =    1410.884874 [cm-1]
     freq (  144) =      42.761025 [THz] =    1426.354269 [cm-1]
     freq (  145) =      44.307271 [THz] =    1477.931474 [cm-1]
     freq (  146) =      44.545185 [THz] =    1485.867443 [cm-1]
     freq (  147) =      44.557676 [THz] =    1486.284101 [cm-1]
     freq (  148) =      44.590102 [THz] =    1487.365713 [cm-1]
     freq (  149) =      44.680172 [THz] =    1490.370104 [cm-1]
     freq (  150) =      44.869834 [THz] =    1496.696546 [cm-1]
 **************************************************************************

     Mode symmetry, C_s (m)     point group:

     freq (   1-   1) =        -11.5  [cm-1]   --> A'              I+R
     freq (   2-   2) =         11.0  [cm-1]   --> A'              I+R
     freq (   3-   3) =         25.9  [cm-1]   --> A''             I+R
     freq (   4-   4) =         51.0  [cm-1]   --> A''             I+R
     freq (   5-   5) =         64.8  [cm-1]   --> A''             I+R
     freq (   6-   6) =         76.3  [cm-1]   --> A''             I+R
     freq (   7-   7) =         88.9  [cm-1]   --> A''             I+R
     freq (   8-   8) =         89.8  [cm-1]   --> A''             I+R
     freq (   9-   9) =         91.0  [cm-1]   --> A''             I+R
     freq (  10-  10) =        189.9  [cm-1]   --> A''             I+R
     freq (  11-  11) =        195.4  [cm-1]   --> A''             I+R
     freq (  12-  12) =        198.9  [cm-1]   --> A''             I+R
     freq (  13-  13) =        199.8  [cm-1]   --> A''             I+R
     freq (  14-  14) =        202.4  [cm-1]   --> A''             I+R
     freq (  15-  15) =        202.8  [cm-1]   --> A''             I+R
     freq (  16-  16) =        245.1  [cm-1]   --> A''             I+R
     freq (  17-  17) =        247.9  [cm-1]   --> A''             I+R
     freq (  18-  18) =        257.1  [cm-1]   --> A''             I+R
     freq (  19-  19) =        257.7  [cm-1]   --> A''             I+R
     freq (  20-  20) =        264.5  [cm-1]   --> A''             I+R
     freq (  21-  21) =        268.3  [cm-1]   --> A''             I+R
     freq (  22-  22) =        298.5  [cm-1]   --> A''             I+R
     freq (  23-  23) =        302.0  [cm-1]   --> A''             I+R
     freq (  24-  24) =        304.8  [cm-1]   --> A''             I+R
     freq (  25-  25) =        306.7  [cm-1]   --> A''             I+R
     freq (  26-  26) =        320.8  [cm-1]   --> A''             I+R
     freq (  27-  27) =        325.7  [cm-1]   --> A''             I+R
     freq (  28-  28) =        331.9  [cm-1]   --> A'              I+R
     freq (  29-  29) =        337.4  [cm-1]   --> A'              I+R
     freq (  30-  30) =        338.0  [cm-1]   --> A'              I+R
     freq (  31-  31) =        340.5  [cm-1]   --> A'              I+R
     freq (  32-  32) =        341.4  [cm-1]   --> A'              I+R
     freq (  33-  33) =        342.2  [cm-1]   --> A'              I+R
     freq (  34-  34) =        516.6  [cm-1]   --> A'              I+R
     freq (  35-  35) =        517.3  [cm-1]   --> A'              I+R
     freq (  36-  36) =        521.6  [cm-1]   --> A'              I+R
     freq (  37-  37) =        521.7  [cm-1]   --> A'              I+R
     freq (  38-  38) =        522.8  [cm-1]   --> A'              I+R
     freq (  39-  39) =        532.3  [cm-1]   --> A'              I+R
     freq (  40-  40) =        564.6  [cm-1]   --> A''             I+R
     freq (  41-  41) =        567.4  [cm-1]   --> A'              I+R
     freq (  42-  42) =        569.9  [cm-1]   --> A'              I+R
     freq (  43-  43) =        571.0  [cm-1]   --> A''             I+R
     freq (  44-  44) =        571.2  [cm-1]   --> A'              I+R
     freq (  45-  45) =        574.4  [cm-1]   --> A'              I+R
     freq (  46-  46) =        576.7  [cm-1]   --> A'              I+R
     freq (  47-  47) =        579.3  [cm-1]   --> A'              I+R
     freq (  48-  48) =        601.3  [cm-1]   --> A''             I+R
     freq (  49-  49) =        604.9  [cm-1]   --> A'              I+R
     freq (  50-  50) =        607.0  [cm-1]   --> A'              I+R
     freq (  51-  51) =        607.2  [cm-1]   --> A''             I+R
     freq (  52-  52) =        607.5  [cm-1]   --> A'              I+R
     freq (  53-  53) =        608.7  [cm-1]   --> A''             I+R
     freq (  54-  54) =        611.4  [cm-1]   --> A''             I+R
     freq (  55-  55) =        611.6  [cm-1]   --> A'              I+R
     freq (  56-  56) =        618.9  [cm-1]   --> A'              I+R
     freq (  57-  57) =        619.9  [cm-1]   --> A'              I+R
     freq (  58-  58) =        638.7  [cm-1]   --> A''             I+R
     freq (  59-  59) =        653.6  [cm-1]   --> A''             I+R
     freq (  60-  60) =        656.5  [cm-1]   --> A''             I+R
     freq (  61-  61) =        659.8  [cm-1]   --> A''             I+R
     freq (  62-  62) =        662.2  [cm-1]   --> A''             I+R
     freq (  63-  63) =        662.9  [cm-1]   --> A''             I+R
     freq (  64-  64) =        683.4  [cm-1]   --> A''             I+R
     freq (  65-  65) =        684.8  [cm-1]   --> A''             I+R
     freq (  66-  66) =        688.0  [cm-1]   --> A''             I+R
     freq (  67-  67) =        688.2  [cm-1]   --> A''             I+R
     freq (  68-  68) =        691.1  [cm-1]   --> A''             I+R
     freq (  69-  69) =        694.6  [cm-1]   --> A''             I+R
     freq (  70-  70) =        735.4  [cm-1]   --> A'              I+R
     freq (  71-  71) =        736.6  [cm-1]   --> A'              I+R
     freq (  72-  72) =        739.9  [cm-1]   --> A'              I+R
     freq (  73-  73) =        744.7  [cm-1]   --> A'              I+R
     freq (  74-  74) =        746.9  [cm-1]   --> A'              I+R
     freq (  75-  75) =        750.0  [cm-1]   --> A'              I+R
     freq (  76-  76) =        756.4  [cm-1]   --> A''             I+R
     freq (  77-  77) =        758.3  [cm-1]   --> A''             I+R
     freq (  78-  78) =        758.6  [cm-1]   --> A''             I+R
     freq (  79-  79) =        759.7  [cm-1]   --> A''             I+R
     freq (  80-  80) =        759.9  [cm-1]   --> A''             I+R
     freq (  81-  81) =        776.2  [cm-1]   --> A''             I+R
     freq (  82-  82) =        805.7  [cm-1]   --> A''             I+R
     freq (  83-  83) =        841.2  [cm-1]   --> A'              I+R
     freq (  84-  84) =        844.6  [cm-1]   --> A'              I+R
     freq (  85-  85) =        848.2  [cm-1]   --> A'              I+R
     freq (  86-  86) =        853.2  [cm-1]   --> A'              I+R
     freq (  87-  87) =        856.2  [cm-1]   --> A'              I+R
     freq (  88-  88) =        859.5  [cm-1]   --> A'              I+R
     freq (  89-  89) =       1013.0  [cm-1]   --> A'              I+R
     freq (  90-  90) =       1016.1  [cm-1]   --> A'              I+R
     freq (  91-  91) =       1018.1  [cm-1]   --> A'              I+R
     freq (  92-  92) =       1030.1  [cm-1]   --> A'              I+R
     freq (  93-  93) =       1031.8  [cm-1]   --> A'              I+R
     freq (  94-  94) =       1037.1  [cm-1]   --> A'              I+R
     freq (  95-  95) =       1079.5  [cm-1]   --> A'              I+R
     freq (  96-  96) =       1081.6  [cm-1]   --> A'              I+R
     freq (  97-  97) =       1082.4  [cm-1]   --> A'              I+R
     freq (  98-  98) =       1091.9  [cm-1]   --> A'              I+R
     freq (  99-  99) =       1093.1  [cm-1]   --> A'              I+R
     freq ( 100- 100) =       1104.1  [cm-1]   --> A'              I+R
     freq ( 101- 101) =       1182.0  [cm-1]   --> A'              I+R
     freq ( 102- 102) =       1204.9  [cm-1]   --> A'              I+R
     freq ( 103- 103) =       1206.3  [cm-1]   --> A'              I+R
     freq ( 104- 104) =       1208.7  [cm-1]   --> A'              I+R
     freq ( 105- 105) =       1211.0  [cm-1]   --> A'              I+R
     freq ( 106- 106) =       1212.5  [cm-1]   --> A'              I+R
     freq ( 107- 107) =       1231.8  [cm-1]   --> A'              I+R
     freq ( 108- 108) =       1234.4  [cm-1]   --> A'              I+R
     freq ( 109- 109) =       1236.0  [cm-1]   --> A'              I+R
     freq ( 110- 110) =       1237.0  [cm-1]   --> A'              I+R
     freq ( 111- 111) =       1239.1  [cm-1]   --> A'              I+R
     freq ( 112- 112) =       1240.8  [cm-1]   --> A'              I+R
     freq ( 113- 113) =       1246.2  [cm-1]   --> A'              I+R
     freq ( 114- 114) =       1248.6  [cm-1]   --> A'              I+R
     freq ( 115- 115) =       1251.4  [cm-1]   --> A'              I+R
     freq ( 116- 116) =       1253.1  [cm-1]   --> A'              I+R
     freq ( 117- 117) =       1253.7  [cm-1]   --> A'              I+R
     freq ( 118- 118) =       1255.1  [cm-1]   --> A'              I+R
     freq ( 119- 119) =       1259.9  [cm-1]   --> A'              I+R
     freq ( 120- 120) =       1260.9  [cm-1]   --> A'              I+R
     freq ( 121- 121) =       1266.3  [cm-1]   --> A'              I+R
     freq ( 122- 122) =       1270.8  [cm-1]   --> A'              I+R
     freq ( 123- 123) =       1276.7  [cm-1]   --> A'              I+R
     freq ( 124- 124) =       1281.4  [cm-1]   --> A'              I+R
     freq ( 125- 125) =       1295.8  [cm-1]   --> A'              I+R
     freq ( 126- 126) =       1297.9  [cm-1]   --> A'              I+R
     freq ( 127- 127) =       1305.6  [cm-1]   --> A'              I+R
     freq ( 128- 128) =       1311.1  [cm-1]   --> A'              I+R
     freq ( 129- 129) =       1318.8  [cm-1]   --> A'              I+R
     freq ( 130- 130) =       1324.3  [cm-1]   --> A'              I+R
     freq ( 131- 131) =       1335.6  [cm-1]   --> A'              I+R
     freq ( 132- 132) =       1346.2  [cm-1]   --> A'              I+R
     freq ( 133- 133) =       1354.7  [cm-1]   --> A'              I+R
     freq ( 134- 134) =       1355.6  [cm-1]   --> A'              I+R
     freq ( 135- 135) =       1362.6  [cm-1]   --> A'              I+R
     freq ( 136- 136) =       1367.9  [cm-1]   --> A'              I+R
     freq ( 137- 137) =       1373.8  [cm-1]   --> A'              I+R
     freq ( 138- 138) =       1377.8  [cm-1]   --> A'              I+R
     freq ( 139- 139) =       1386.8  [cm-1]   --> A'              I+R
     freq ( 140- 140) =       1392.7  [cm-1]   --> A'              I+R
     freq ( 141- 141) =       1394.3  [cm-1]   --> A'              I+R
     freq ( 142- 142) =       1396.4  [cm-1]   --> A'              I+R
     freq ( 143- 143) =       1410.9  [cm-1]   --> A'              I+R
     freq ( 144- 144) =       1426.4  [cm-1]   --> A'              I+R
     freq ( 145- 145) =       1477.9  [cm-1]   --> A'              I+R
     freq ( 146- 146) =       1485.9  [cm-1]   --> A'              I+R
     freq ( 147- 147) =       1486.3  [cm-1]   --> A'              I+R
     freq ( 148- 148) =       1487.4  [cm-1]   --> A'              I+R
     freq ( 149- 149) =       1490.4  [cm-1]   --> A'              I+R
     freq ( 150- 150) =       1496.7  [cm-1]   --> A'              I+R
 
     PHONON       :     17h57m CPU     20h41m WALL

     INITIALIZATION: 
     phq_setup    :      0.25s CPU      0.42s WALL (       1 calls)
     phq_init     :    599.44s CPU    625.54s WALL (       1 calls)
 
     phq_init     :    599.44s CPU    625.54s WALL (       1 calls)
     set_drhoc    :      5.01s CPU      5.03s WALL (       3 calls)
     init_vloc    :      0.83s CPU      0.84s WALL (       1 calls)
     init_us_1    :      0.17s CPU      0.18s WALL (       1 calls)
     newd         :      0.12s CPU      0.24s WALL (       1 calls)
     dvanqq       :    352.48s CPU    353.65s WALL (       1 calls)
     drho         :    225.17s CPU    235.52s WALL (       1 calls)
 
     DYNAMICAL MATRIX:
     dynmat0      :     17.91s CPU     32.44s WALL (       1 calls)
     phqscf       :  64070.36s CPU  73830.43s WALL (       1 calls)
     dynmatrix    :      1.98s CPU      2.64s WALL (       1 calls)
 
     phqscf       :  64070.36s CPU  73830.43s WALL (       1 calls)
     solve_linter :  63945.67s CPU  73328.38s WALL (     149 calls)
     drhodv       :    120.65s CPU    125.26s WALL (     149 calls)
 
     dynmat0      :     17.91s CPU     32.44s WALL (       1 calls)
     dynmat_us    :      3.63s CPU      5.13s WALL (       1 calls)
     d2ionq       :      9.13s CPU      9.15s WALL (       1 calls)
     dynmatcc     :      5.12s CPU      5.15s WALL (       1 calls)
 
     dynmat_us    :      3.63s CPU      5.13s WALL (       1 calls)
     addusdynmat  :      0.01s CPU      0.02s WALL (       1 calls)
 
     phqscf       :  64070.36s CPU  73830.43s WALL (       1 calls)
     solve_linter :  63945.67s CPU  73328.38s WALL (     149 calls)
 
     solve_linter :  63945.67s CPU  73328.38s WALL (     149 calls)
     dvqpsi_us    :    511.58s CPU    516.02s WALL (     600 calls)
     ortho        :    541.39s CPU    550.50s WALL (    7452 calls)
     cgsolve      :  34231.71s CPU  34637.68s WALL (    7452 calls)
     incdrhoscf   :   2920.83s CPU   2948.34s WALL (    7452 calls)
     addusddens   :   1215.83s CPU   2433.93s WALL (    1999 calls)
     vpsifft      :   2031.63s CPU   2059.74s WALL (    6852 calls)
     dv_of_drho   :    217.11s CPU    261.31s WALL (    1863 calls)
     mix_pot      :   1157.66s CPU   2421.17s WALL (    1850 calls)
     ef_shift     :    350.20s CPU    402.54s WALL (    1999 calls)
     localdos     :    564.30s CPU    577.41s WALL (     149 calls)
     psymdvscf    :   2110.15s CPU   2693.50s WALL (    1850 calls)
     newdq        :   1181.19s CPU   1187.65s WALL (    1850 calls)
     adddvscf     :    447.32s CPU    450.64s WALL (    6852 calls)
     drhodvus     :    400.63s CPU    778.44s WALL (     149 calls)
 
     dvqpsi_us    :    511.58s CPU    516.02s WALL (     600 calls)
     dvqpsi_us_on :    360.78s CPU    363.37s WALL (     600 calls)
 
     cgsolve      :  34231.71s CPU  34637.68s WALL (    7452 calls)
     ch_psi       :  33309.31s CPU  33700.59s WALL (  177976 calls)
 
     ch_psi       :  33309.31s CPU  33700.59s WALL (  177976 calls)
     h_psi        :  26226.03s CPU  26523.58s WALL (  177976 calls)
     last         :   5180.19s CPU   5216.98s WALL (  177976 calls)
 
     h_psi        :  26226.03s CPU  26523.58s WALL (  177976 calls)
     add_vuspsi   :   1612.70s CPU   1626.43s WALL (  177976 calls)
 
     incdrhoscf   :   2920.83s CPU   2948.34s WALL (    7452 calls)
     addusdbec    :    151.09s CPU    153.65s WALL (    8052 calls)
 
     drhodvus     :    400.63s CPU    778.44s WALL (     149 calls)
 
      General routines
     calbec       :   4232.70s CPU   4265.28s WALL (  374492 calls)
     fft          :    806.30s CPU    881.57s WALL (   58008 calls)
     ffts         :    200.89s CPU    204.04s WALL (   86726 calls)
     fftw         :  26236.66s CPU  26538.89s WALL (23668460 calls)
     davcio       :     11.06s CPU   4498.09s WALL (   73961 calls)
     write_rec    :      7.69s CPU   3220.11s WALL (    1999 calls)
 
 
     PHONON       :     17h57m CPU     20h41m WALL

 
   This run was terminated on:   5: 5: 1   1Dec2022            

=------------------------------------------------------------------------------=
   JOB DONE.
=------------------------------------------------------------------------------=
