
     Program PWSCF v.6.8 starts on 12Oct2022 at 14: 8:15 

     This program is part of the open-source Quantum ESPRESSO suite
     for quantum simulation of materials; please cite
         "P. Giannozzi et al., J. Phys.:Condens. Matter 21 395502 (2009);
         "P. Giannozzi et al., J. Phys.:Condens. Matter 29 465901 (2017);
         "P. Giannozzi et al., J. Chem. Phys. 152 154105 (2020);
          URL http://www.quantum-espresso.org", 
     in publications or presentations arising from this work. More details at
     http://www.quantum-espresso.org/quote

     Parallel version (MPI & OpenMP), running on      64 processor cores
     Number of MPI processes:                64
     Threads/MPI process:                     1

     MPI processes distributed on     2 nodes
     R & G space division:  proc/nbgrp/npool/nimage =      64
     163045 MiB available memory on the printing compute node when the environment starts
 
     Waiting for input...
     Reading input from standard input

     Current dimensions of program PWSCF are:
     Max number of different atomic species (ntypx) = 10
     Max number of k-points (npk) =  40000
     Max angular momentum in pseudopotentials (lmaxx) =  4
     file N.pbe-n-kjpaw_psl.1.0.0.UPF: wavefunction(s)  2S renormalized
     file C.pbe-n-kjpaw_psl.1.0.0.UPF: wavefunction(s)  2S 2P renormalized

     Subspace diagonalization in iterative solution of the eigenvalue problem:
     one sub-group per band group will be used
     scalapack distributed-memory algorithm (size of sub-group:  8*  8 procs)

 
     Parallelization info
     --------------------
     sticks:   dense  smooth     PW     G-vecs:    dense   smooth      PW
     Min         145     145     37                13599    13599    1798
     Max         146     146     38                13610    13610    1806
     Sum        9343    9343   2419               870805   870805  115361
 
     Using Slab Decomposition
 


     bravais-lattice index     =            4
     lattice parameter (alat)  =      23.7646  a.u.
     unit-cell volume          =   13863.8211 (a.u.)^3
     number of atoms/cell      =           50
     number of atomic types    =            3
     number of electrons       =       199.00
     number of Kohn-Sham states=          120
     kinetic-energy cutoff     =      60.0000  Ry
     charge density cutoff     =     240.0000  Ry
     scf convergence threshold =      1.0E-12
     mixing beta               =       0.7000
     number of iterations used =            8  plain     mixing
     energy convergence thresh.=      1.0E-04
     force convergence thresh. =      1.9E-10
     press convergence thresh. =      5.0E-01
     Exchange-correlation= SLA  PW   PBX  PBC
                           (   1   4   3   4   0   0   0)
     nstep                     =         2000


     celldm(1)=  23.764638  celldm(2)=   0.000000  celldm(3)=   1.192775
     celldm(4)=   0.000000  celldm(5)=   0.000000  celldm(6)=   0.000000

     crystal axes: (cart. coord. in units of alat)
               a(1) = (   1.000000   0.000000   0.000000 )  
               a(2) = (  -0.500000   0.866025   0.000000 )  
               a(3) = (   0.000000   0.000000   1.192775 )  

     reciprocal axes: (cart. coord. in units 2 pi/alat)
               b(1) = (  1.000000  0.577350  0.000000 )  
               b(2) = (  0.000000  1.154701  0.000000 )  
               b(3) = (  0.000000  0.000000  0.838381 )  


     PseudoPot. # 1 for B  read from file:
     ./pseudo/B.pbe-n-kjpaw_psl.1.0.0.UPF
     MD5 check sum: 8c825a5969375aca5c2c6ad5945b3059
     Pseudo is Projector augmented-wave + core cor, Zval =  3.0
     Generated using &quot;atomic&quot; code by A. Dal Corso  v.6.3
     Shape of augmentation charge: PSQ
     Using radial grid of 1059 points,  4 beta functions with: 
                l(1) =   0
                l(2) =   0
                l(3) =   1
                l(4) =   1
     Q(r) pseudized with 0 coefficients 


     PseudoPot. # 2 for N  read from file:
     ./pseudo/N.pbe-n-kjpaw_psl.1.0.0.UPF
     MD5 check sum: 14c48229446f9f2d411169a3abcbc3fa
     Pseudo is Projector augmented-wave + core cor, Zval =  5.0
     Generated using &quot;atomic&quot; code by A. Dal Corso  v.6.3
     Shape of augmentation charge: PSQ
     Using radial grid of 1085 points,  4 beta functions with: 
                l(1) =   0
                l(2) =   0
                l(3) =   1
                l(4) =   1
     Q(r) pseudized with 0 coefficients 


     PseudoPot. # 3 for C  read from file:
     ./pseudo/C.pbe-n-kjpaw_psl.1.0.0.UPF
     MD5 check sum: 5f16ad9a65e90284d1d834d4ab3b0f7d
     Pseudo is Projector augmented-wave + core cor, Zval =  4.0
     Generated using &quot;atomic&quot; code by A. Dal Corso  v.6.3
     Shape of augmentation charge: PSQ
     Using radial grid of 1073 points,  4 beta functions with: 
                l(1) =   0
                l(2) =   0
                l(3) =   1
                l(4) =   1
     Q(r) pseudized with 0 coefficients 


     atomic species   valence    mass     pseudopotential
        B              3.00    10.81100     B ( 1.00)
        N              5.00    14.00670     N ( 1.00)
        C              4.00    12.01070     C ( 1.00)

      4 Sym. Ops. (no inversion) found



   Cartesian axes

     site n.     atom                  positions (alat units)
         1           B   tau(   1) = (   0.0000005   0.1154698   0.5963877  )
         2           B   tau(   2) = (  -0.0999995   0.2886748   0.5963877  )
         3           B   tau(   3) = (  -0.1999995   0.4618799   0.5963877  )
         4           B   tau(   4) = (  -0.2999995   0.6350850   0.5963877  )
         5           B   tau(   5) = (  -0.3999995   0.8082901   0.5963877  )
         6           B   tau(   6) = (   0.2000005   0.1154698   0.5963877  )
         7           B   tau(   7) = (   0.1000005   0.2886748   0.5963877  )
         8           B   tau(   8) = (   0.0000005   0.4618799   0.5963877  )
         9           B   tau(   9) = (  -0.0999995   0.6350850   0.5963877  )
        10           B   tau(  10) = (  -0.1999995   0.8082901   0.5963877  )
        11           B   tau(  11) = (   0.4000005   0.1154698   0.5963877  )
        12           B   tau(  12) = (   0.3000005   0.2886748   0.5963877  )
        13           C   tau(  13) = (   0.2000005   0.4618799   0.5963877  )
        14           B   tau(  14) = (   0.1000005   0.6350850   0.5963877  )
        15           B   tau(  15) = (   0.0000005   0.8082901   0.5963877  )
        16           B   tau(  16) = (   0.6000005   0.1154698   0.5963877  )
        17           B   tau(  17) = (   0.5000005   0.2886748   0.5963877  )
        18           B   tau(  18) = (   0.4000005   0.4618799   0.5963877  )
        19           B   tau(  19) = (   0.3000005   0.6350850   0.5963877  )
        20           B   tau(  20) = (   0.2000005   0.8082901   0.5963877  )
        21           B   tau(  21) = (   0.8000005   0.1154698   0.5963877  )
        22           B   tau(  22) = (   0.7000005   0.2886748   0.5963877  )
        23           B   tau(  23) = (   0.6000005   0.4618799   0.5963877  )
        24           B   tau(  24) = (   0.5000005   0.6350850   0.5963877  )
        25           B   tau(  25) = (   0.4000005   0.8082901   0.5963877  )
        26           N   tau(  26) = (   0.0999995   0.0577353   0.5963877  )
        27           N   tau(  27) = (  -0.0000005   0.2309404   0.5963877  )
        28           N   tau(  28) = (  -0.1000005   0.4041455   0.5963877  )
        29           N   tau(  29) = (  -0.2000005   0.5773506   0.5963877  )
        30           N   tau(  30) = (  -0.3000005   0.7505556   0.5963877  )
        31           N   tau(  31) = (   0.2999995   0.0577353   0.5963877  )
        32           N   tau(  32) = (   0.1999995   0.2309404   0.5963877  )
        33           C   tau(  33) = (   0.0999995   0.4041455   0.5963877  )
        34           N   tau(  34) = (  -0.0000005   0.5773506   0.5963877  )
        35           N   tau(  35) = (  -0.1000005   0.7505556   0.5963877  )
        36           N   tau(  36) = (   0.4999995   0.0577353   0.5963877  )
        37           N   tau(  37) = (   0.3999995   0.2309404   0.5963877  )
        38           N   tau(  38) = (   0.2999995   0.4041455   0.5963877  )
        39           C   tau(  39) = (   0.1999995   0.5773506   0.5963877  )
        40           N   tau(  40) = (   0.0999995   0.7505556   0.5963877  )
        41           N   tau(  41) = (   0.6999995   0.0577353   0.5963877  )
        42           N   tau(  42) = (   0.5999995   0.2309404   0.5963877  )
        43           N   tau(  43) = (   0.4999995   0.4041455   0.5963877  )
        44           N   tau(  44) = (   0.3999995   0.5773506   0.5963877  )
        45           N   tau(  45) = (   0.2999995   0.7505556   0.5963877  )
        46           N   tau(  46) = (   0.8999995   0.0577353   0.5963877  )
        47           N   tau(  47) = (   0.7999995   0.2309404   0.5963877  )
        48           N   tau(  48) = (   0.6999995   0.4041455   0.5963877  )
        49           N   tau(  49) = (   0.5999995   0.5773506   0.5963877  )
        50           N   tau(  50) = (   0.4999995   0.7505556   0.5963877  )

     number of k points=     3  Methfessel-Paxton smearing, width (Ry)=  0.0100
                       cart. coord. in units 2pi/alat
        k(    1) = (   0.0000000   0.0000000   0.0000000), wk =   0.5000000
        k(    2) = (   0.0000000  -0.5773503   0.0000000), wk =   1.0000000
        k(    3) = (   0.5000000  -0.2886751   0.0000000), wk =   0.5000000

     Dense  grid:   870805 G-vectors     FFT dimensions: ( 120, 120, 144)

     Estimated max dynamical RAM per process >      58.00 MB

     Estimated total dynamical RAM >       3.62 GB
 ----2D----2D----2D----2D----2D----2D----2D----2D----2D----2D----2D----2D
  The code is running with the 2D cutoff
  Please refer to:
  Sohier, T., Calandra, M., & Mauri, F. (2017), 
  Density functional perturbation theory for gated two-dimensional heterostructu
 res:
  Theoretical developments and application to flexural phonons in graphene.
  Physical Review B, 96(7), 75448. https://doi.org/10.1103/PhysRevB.96.075448
 ----2D----2D----2D----2D----2D----2D----2D----2D----2D----2D----2D----2D

     Check: negative core charge=   -0.000007

     Initial potential from superposition of free atoms

     starting charge  198.99293, renormalised to  199.00000

     negative rho (up, down):  7.935E-03 0.000E+00
     Starting wfcs are  200 randomized atomic wfcs
     Checking if some PAW data can be deallocated... 

     total cpu time spent up to now is        5.2 secs

     Self-consistent Calculation

     iteration #  1     ecut=    60.00 Ry     beta= 0.70
     CG style diagonalization
     ethr =  1.00E-02,  avg # of iterations =  3.0

     negative rho (up, down):  1.118E-02 0.000E+00

     total cpu time spent up to now is       23.4 secs

     total energy              =    -979.99012604 Ry
     estimated scf accuracy    <       9.97410851 Ry

     iteration #  2     ecut=    60.00 Ry     beta= 0.70
     CG style diagonalization
     ethr =  5.01E-03,  avg # of iterations =  3.9

     negative rho (up, down):  1.097E-02 0.000E+00

     total cpu time spent up to now is       42.0 secs

     total energy              =    -981.95537443 Ry
     estimated scf accuracy    <       6.23438945 Ry

     iteration #  3     ecut=    60.00 Ry     beta= 0.70
     CG style diagonalization
     ethr =  3.13E-03,  avg # of iterations =  3.8

     negative rho (up, down):  1.233E-02 0.000E+00

     total cpu time spent up to now is       59.6 secs

     total energy              =    -983.31061150 Ry
     estimated scf accuracy    <       0.31015078 Ry

     iteration #  4     ecut=    60.00 Ry     beta= 0.70
     CG style diagonalization
     c_bands:  2 eigenvalues not converged
     c_bands:  2 eigenvalues not converged
     c_bands:  4 eigenvalues not converged
     ethr =  1.56E-04,  avg # of iterations =  4.9

     negative rho (up, down):  1.396E-02 0.000E+00

     total cpu time spent up to now is       82.8 secs

     total energy              =    -983.41782263 Ry
     estimated scf accuracy    <       0.21573838 Ry

     iteration #  5     ecut=    60.00 Ry     beta= 0.70
     CG style diagonalization
     ethr =  1.08E-04,  avg # of iterations =  3.5

     negative rho (up, down):  1.457E-02 0.000E+00

     total cpu time spent up to now is       98.3 secs

     total energy              =    -983.45608866 Ry
     estimated scf accuracy    <       0.01815077 Ry

     iteration #  6     ecut=    60.00 Ry     beta= 0.70
     CG style diagonalization
     c_bands:  2 eigenvalues not converged
     c_bands:  1 eigenvalues not converged
     ethr =  9.12E-06,  avg # of iterations =  4.2

     negative rho (up, down):  1.530E-02 0.000E+00

     total cpu time spent up to now is      118.0 secs

     total energy              =    -983.45863147 Ry
     estimated scf accuracy    <       0.00317853 Ry

     iteration #  7     ecut=    60.00 Ry     beta= 0.70
     CG style diagonalization
     c_bands:  5 eigenvalues not converged
     c_bands:  2 eigenvalues not converged
     c_bands:  1 eigenvalues not converged
     ethr =  1.60E-06,  avg # of iterations =  4.7

     negative rho (up, down):  1.559E-02 0.000E+00

     total cpu time spent up to now is      140.2 secs

     total energy              =    -983.45979643 Ry
     estimated scf accuracy    <       0.00089038 Ry

     iteration #  8     ecut=    60.00 Ry     beta= 0.70
     CG style diagonalization
     c_bands:  1 eigenvalues not converged
     c_bands:  1 eigenvalues not converged
     ethr =  4.47E-07,  avg # of iterations =  3.5

     negative rho (up, down):  1.556E-02 0.000E+00

     total cpu time spent up to now is      155.8 secs

     total energy              =    -983.45975249 Ry
     estimated scf accuracy    <       0.00039968 Ry

     iteration #  9     ecut=    60.00 Ry     beta= 0.70
     CG style diagonalization
     c_bands:  1 eigenvalues not converged
     ethr =  2.01E-07,  avg # of iterations =  3.4

     negative rho (up, down):  1.555E-02 0.000E+00

     total cpu time spent up to now is      170.9 secs

     total energy              =    -983.45979759 Ry
     estimated scf accuracy    <       0.00003072 Ry

     iteration # 10     ecut=    60.00 Ry     beta= 0.70
     CG style diagonalization
     ethr =  1.54E-08,  avg # of iterations =  4.3

     negative rho (up, down):  1.555E-02 0.000E+00

     total cpu time spent up to now is      190.9 secs

     total energy              =    -983.45981227 Ry
     estimated scf accuracy    <       0.00000177 Ry

     iteration # 11     ecut=    60.00 Ry     beta= 0.70
     CG style diagonalization
     ethr =  8.91E-10,  avg # of iterations =  3.7

     negative rho (up, down):  1.555E-02 0.000E+00

     total cpu time spent up to now is      207.7 secs

     total energy              =    -983.45981247 Ry
     estimated scf accuracy    <       0.00000062 Ry

     iteration # 12     ecut=    60.00 Ry     beta= 0.70
     CG style diagonalization
     ethr =  3.13E-10,  avg # of iterations =  3.2

     negative rho (up, down):  1.555E-02 0.000E+00

     total cpu time spent up to now is      222.0 secs

     total energy              =    -983.45981252 Ry
     estimated scf accuracy    <       0.00000009 Ry

     iteration # 13     ecut=    60.00 Ry     beta= 0.70
     CG style diagonalization
     ethr =  4.51E-11,  avg # of iterations =  4.2

     negative rho (up, down):  1.555E-02 0.000E+00

     total cpu time spent up to now is      241.7 secs

     total energy              =    -983.45981256 Ry
     estimated scf accuracy    <          6.7E-09 Ry

     iteration # 14     ecut=    60.00 Ry     beta= 0.70
     CG style diagonalization
     ethr =  3.35E-12,  avg # of iterations =  3.6

     negative rho (up, down):  1.555E-02 0.000E+00

     total cpu time spent up to now is      258.0 secs

     total energy              =    -983.45981256 Ry
     estimated scf accuracy    <          2.0E-09 Ry

     iteration # 15     ecut=    60.00 Ry     beta= 0.70
     CG style diagonalization
     ethr =  9.94E-13,  avg # of iterations =  3.5

     negative rho (up, down):  1.555E-02 0.000E+00

     total cpu time spent up to now is      273.7 secs

     total energy              =    -983.45981256 Ry
     estimated scf accuracy    <          1.9E-10 Ry

     iteration # 16     ecut=    60.00 Ry     beta= 0.70
     CG style diagonalization
     ethr =  1.00E-13,  avg # of iterations =  4.1

     negative rho (up, down):  1.555E-02 0.000E+00

     total cpu time spent up to now is      292.7 secs

     total energy              =    -983.45981256 Ry
     estimated scf accuracy    <          2.8E-11 Ry

     iteration # 17     ecut=    60.00 Ry     beta= 0.70
     CG style diagonalization
     ethr =  1.00E-13,  avg # of iterations =  3.0

     negative rho (up, down):  1.555E-02 0.000E+00

     total cpu time spent up to now is      305.4 secs

     total energy              =    -983.45981256 Ry
     estimated scf accuracy    <          4.2E-12 Ry

     iteration # 18     ecut=    60.00 Ry     beta= 0.70
     CG style diagonalization
     ethr =  1.00E-13,  avg # of iterations =  3.0

     negative rho (up, down):  1.555E-02 0.000E+00

     total cpu time spent up to now is      318.1 secs

     End of self-consistent calculation

          k = 0.0000 0.0000 0.0000 (108987 PWs)   bands (ev):

   -23.4790 -23.0319 -22.7563 -22.7376 -22.6767 -22.5353 -22.4147 -21.6467
   -21.3767 -21.3727 -21.3444 -21.2172 -21.2126 -21.0235 -20.9165 -20.9034
   -20.7945 -20.5399 -20.4804 -20.1186 -20.1133 -20.0621 -20.0202 -18.6510
   -16.8812 -14.8434 -14.2746 -14.2567 -14.2022 -14.1685 -14.1506 -14.0161
   -13.9048 -13.8431 -13.7980 -13.7152 -13.5467 -12.4236 -12.3541 -12.3390
   -12.2722 -12.0947 -12.0652 -11.8984 -11.7588 -11.7118 -11.6791 -11.6247
   -11.4941 -11.0363 -10.7122 -10.5913 -10.5831 -10.4820 -10.4655 -10.3827
   -10.1940 -10.0811 -10.0667 -10.0072  -9.9839  -9.9109  -9.8798  -9.8586
    -9.8267  -9.8265  -9.7929  -9.7822  -9.7586  -9.6977  -9.5552  -9.5275
    -9.3125  -9.1204  -8.4324  -8.4016  -8.3962  -8.3269  -8.2147  -8.1968
    -8.1749  -8.1695  -8.0841  -8.0477  -7.9425  -7.7795  -7.6310  -7.5339
    -7.5126  -7.4361  -7.3148  -7.1728  -6.8357  -6.7955  -6.3206  -6.2963
    -6.2404  -6.2399  -5.9580  -5.1818  -1.9186  -1.1478  -1.0633  -1.0490
    -1.0145  -1.0107  -0.8986  -0.3185  -0.2401  -0.0624  -0.0527  -0.0211
     0.0388   0.0568   0.0697   0.0740   0.1220   0.1502   0.1592   0.2159

          k = 0.0000-0.5774 0.0000 (108768 PWs)   bands (ev):

   -23.3756 -23.2254 -22.9861 -22.7598 -22.4119 -22.1532 -22.1089 -22.0326
   -21.8875 -21.6570 -21.3100 -21.2412 -21.1784 -20.9379 -20.6302 -20.5537
   -20.5038 -20.4972 -20.4740 -20.4199 -20.3302 -20.0638 -20.0291 -18.6609
   -16.9022 -14.9642 -14.5563 -14.3615 -14.3597 -14.2320 -13.8807 -13.7026
   -13.6488 -13.6151 -13.5107 -13.4464 -13.1110 -12.9975 -12.8819 -12.7412
   -12.6508 -12.5839 -11.9262 -11.9048 -11.5910 -11.4722 -11.4476 -11.2804
   -11.0696 -10.9459 -10.8728 -10.8237 -10.7457 -10.7308 -10.5120 -10.4685
   -10.4078 -10.3181 -10.3017 -10.1949 -10.0727 -10.0414  -9.9660  -9.8831
    -9.7686  -9.4430  -9.3561  -9.2941  -9.2807  -9.2536  -9.2238  -9.2229
    -9.1647  -9.1030  -9.0677  -8.8918  -8.8227  -8.7451  -8.4788  -8.2683
    -8.1774  -8.0721  -8.0140  -7.9613  -7.9007  -7.8357  -7.5693  -7.2106
    -7.0725  -6.9661  -6.9581  -6.9285  -6.9098  -6.8645  -6.8031  -6.7586
    -6.5907  -6.2865  -5.8898  -5.2519  -1.8522  -1.0253  -0.9978  -0.9065
    -0.8518  -0.7959  -0.7715  -0.7463  -0.6555  -0.4147  -0.2407  -0.2013
    -0.1700  -0.1677  -0.0578   0.0404   0.0680   0.6233   0.6400   0.7281

          k = 0.5000-0.2887 0.0000 (108768 PWs)   bands (ev):

   -23.4007 -23.1636 -22.9840 -22.8339 -22.3840 -22.1801 -22.0827 -22.0246
   -21.8965 -21.5336 -21.3758 -21.2930 -21.1960 -20.9889 -20.5612 -20.5375
   -20.4892 -20.4819 -20.4488 -20.4282 -20.3998 -20.1092 -19.9628 -18.6757
   -16.9001 -14.9790 -14.4561 -14.3919 -14.3714 -14.2460 -13.8659 -13.7483
   -13.7353 -13.5795 -13.5033 -13.4727 -13.0124 -12.9745 -12.9147 -12.7330
   -12.7102 -12.4951 -12.0027 -11.8882 -11.5509 -11.5225 -11.3885 -11.3501
   -11.0049 -10.9355 -10.8805 -10.8511 -10.8304 -10.7025 -10.4690 -10.4427
   -10.4400 -10.3430 -10.3026 -10.2432 -10.0830 -10.0444  -9.9424  -9.9395
    -9.5677  -9.4248  -9.3362  -9.3242  -9.2412  -9.2354  -9.2289  -9.2042
    -9.1480  -9.1406  -8.9953  -8.9939  -8.8890  -8.7198  -8.6513  -8.2024
    -8.1463  -8.0622  -7.9908  -7.9872  -7.9798  -7.7832  -7.5781  -7.1885
    -6.9908  -6.9835  -6.9659  -6.9009  -6.8824  -6.8649  -6.8247  -6.7843
    -6.4958  -6.4182  -5.9408  -5.2063  -1.8585  -1.0278  -1.0137  -0.9153
    -0.8636  -0.7804  -0.7632  -0.7288  -0.6423  -0.3245  -0.2209  -0.2182
    -0.1929  -0.1830  -0.1276   0.0302   0.0841   0.6197   0.6350   0.7693

     the Fermi energy is    -5.2232 ev

!    total energy              =    -983.45981256 Ry

     total all-electron energy =     -3944.368798 Ry
     estimated scf accuracy    <          2.5E-13 Ry
     smearing contrib. (-TS)   =      -0.00242639 Ry
     internal energy E=F+TS    =    -983.45738617 Ry

     The total energy is F=E-TS. E is the sum of the following terms:
     one-electron contribution =   -6176.39968856 Ry
     hartree contribution      =    3119.05691794 Ry
     xc contribution           =    -219.35141726 Ry
     ewald contribution        =    2620.12010063 Ry
     one-center paw contrib.   =    -326.88329892 Ry

     convergence has been achieved in  18 iterations

     negative rho (up, down):  1.555E-02 0.000E+00

     Forces acting on atoms (cartesian axes, Ry/au):

     atom    1 type  1   force =    -0.00477969    0.00562709    0.00000000
     atom    2 type  1   force =     0.00276648   -0.00134127    0.00000000
     atom    3 type  1   force =     0.00184728    0.00169241    0.00000000
     atom    4 type  1   force =     0.00217629   -0.00170887    0.00000000
     atom    5 type  1   force =     0.00196405   -0.00113395    0.00000000
     atom    6 type  1   force =     0.00284296   -0.00290207    0.00000000
     atom    7 type  1   force =     0.00625811   -0.08787067    0.00000000
     atom    8 type  1   force =    -0.07406775    0.06689268    0.00000000
     atom    9 type  1   force =     0.01053869   -0.00608452    0.00000000
     atom   10 type  1   force =     0.00256807   -0.00103029    0.00000000
     atom   11 type  1   force =    -0.00005947   -0.00385233    0.00000000
     atom   12 type  1   force =    -0.01151515   -0.01066090    0.00000000
     atom   13 type  3   force =    -0.00615040    0.00355094    0.00000000
     atom   14 type  1   force =    -0.09496464    0.03069821    0.00000000
     atom   15 type  1   force =    -0.00054203   -0.00244600    0.00000000
     atom   16 type  1   force =    -0.00216776   -0.00043988    0.00000000
     atom   17 type  1   force =     0.00255180   -0.00147328    0.00000000
     atom   18 type  1   force =     0.00347503    0.01530286    0.00000000
     atom   19 type  1   force =     0.07922728    0.03851565    0.00000000
     atom   20 type  1   force =     0.00254481   -0.00172521    0.00000000
     atom   21 type  1   force =     0.00340431   -0.00196548    0.00000000
     atom   22 type  1   force =    -0.00070293    0.00209728    0.00000000
     atom   23 type  1   force =     0.00330648    0.00197767    0.00000000
     atom   24 type  1   force =     0.00393474   -0.00101104    0.00000000
     atom   25 type  1   force =    -0.00726304    0.00132579    0.00000000
     atom   26 type  2   force =     0.00205560    0.00052261    0.00000000
     atom   27 type  2   force =    -0.00306701   -0.01783518    0.00000000
     atom   28 type  2   force =    -0.01155899    0.00451409    0.00000000
     atom   29 type  2   force =    -0.00579537   -0.00073076    0.00000000
     atom   30 type  2   force =    -0.00204432    0.00118029    0.00000000
     atom   31 type  2   force =    -0.00013127    0.00033168    0.00000000
     atom   32 type  2   force =     0.00703365   -0.01072076    0.00000000
     atom   33 type  3   force =     0.14762344    0.05882957    0.00000000
     atom   34 type  2   force =    -0.03461109    0.01998272    0.00000000
     atom   35 type  2   force =    -0.00226483    0.00538432    0.00000000
     atom   36 type  2   force =    -0.00162055    0.00471084    0.00000000
     atom   37 type  2   force =    -0.00045602    0.00872013    0.00000000
     atom   38 type  2   force =    -0.05092122    0.02939938    0.00000000
     atom   39 type  3   force =     0.02286382   -0.15726043    0.00000000
     atom   40 type  2   force =    -0.00968881    0.00775333    0.00000000
     atom   41 type  2   force =     0.00046173   -0.00122280    0.00000000
     atom   42 type  2   force =    -0.00080156    0.00046278    0.00000000
     atom   43 type  2   force =    -0.00777986   -0.00396514    0.00000000
     atom   44 type  2   force =     0.01280127   -0.00073094    0.00000000
     atom   45 type  2   force =     0.01391222    0.01157370    0.00000000
     atom   46 type  2   force =     0.00017350   -0.00010017    0.00000000
     atom   47 type  2   force =     0.00128984    0.00021153    0.00000000
     atom   48 type  2   force =    -0.00488998   -0.00095198    0.00000000
     atom   49 type  2   force =    -0.00035287   -0.00005216    0.00000000
     atom   50 type  2   force =     0.00057520   -0.00204150    0.00000000

     Total force =     0.305833     Total SCF correction =     0.000001


     Computing stress (Cartesian axis) and pressure


     negative rho (up, down):  1.555E-02 0.000E+00
          total   stress  (Ry/bohr**3)                   (kbar)     P=        3.77
   0.00004610  -0.00001000   0.00000000            6.78       -1.47        0.00
  -0.00001000   0.00003456  -0.00000000           -1.47        5.08       -0.00
   0.00000000   0.00000000  -0.00000383            0.00        0.00       -0.56


     BFGS Geometry Optimization
     Energy error            =      0.0E+00 Ry
     Gradient error          =      1.6E-01 Ry/Bohr
     Cell gradient error     =      6.8E+00 kbar

     number of scf cycles    =   1
     number of bfgs steps    =   0

     enthalpy           new  =    -983.4598125574 Ry

     new trust radius        =       0.1589138036 bohr
     new conv_thr            =            1.0E-12 Ry

     new unit-cell volume =  13891.78999 a.u.^3 (  2058.55089 Ang^3 )
     density =      0.49823 g/cm^3

CELL_PARAMETERS (alat= 23.76463845)
   1.001152500  -0.000249880   0.000000000
  -0.500792652   0.866898559   0.000000000
   0.000000000   0.000000000   1.192775420

ATOMIC_POSITIONS (crystal)
B             0.0666025811        0.1336064146        0.5000000000
B             0.0667508262        0.3332678292        0.5000000000
B             0.0667858487        0.5334152328        0.5000000000
B             0.0667170607        0.7332499679        0.5000000000
B             0.0667220974        0.9332779026        0.5000000000
B             0.2667161254        0.1331919913        0.5000000000
B             0.2647955622        0.3290634503        0.5000000000
B             0.2651754039        0.5365832499        0.5000000000
B             0.2669626408        0.7330373592        0.5000000000
B             0.2667500321        0.9332829393        0.5000000000
B             0.4665709071        0.1331458192        0.5000000000
B             0.4659234490        0.3328149974        0.5000000000
C             0.4664944635        0.5335055365        0.5000000000
B             0.4634167501        0.7348245961        0.5000000000
B             0.4665847672        0.9332141513        0.5000000000
B             0.6665650953        0.1333116266        0.5000000000
B             0.6667385854        0.3332614146        0.5000000000
B             0.6671850026        0.5340765510        0.5000000000
B             0.6709365497        0.7352044378        0.5000000000
B             0.6667321708        0.9332491738        0.5000000000
B             0.8667625007        0.1332374993        0.5000000000
B             0.8666883734        0.3334349047        0.5000000000
B             0.8668541808        0.5334290929        0.5000000000
B             0.8668080087        0.7332838746        0.5000000000
B             0.8663935854        0.9333974189        0.5000000000
N             0.1334321947        0.0666923933        0.5000000000
N             0.1327706452        0.2658004059        0.5000000000
N             0.1329562733        0.4668863353        0.5000000000
N             0.1330713812        0.6666314930        0.5000000000
N             0.1332756509        0.8667243491        0.5000000000
N             0.3333355342        0.0666831158        0.5000000000
N             0.3333685157        0.2661460889        0.5000000000
C             0.3409741305        0.4695254711        0.5000000000
N             0.3323620590        0.6676379410        0.5000000000
N             0.3333685070        0.8669286188        0.5000000000
N             0.5333792559        0.0668958951        0.5000000000
N             0.5335256625        0.2670907027        0.5000000000
N             0.5319045127        0.4680954873        0.5000000000
C             0.5304745289        0.6590258695        0.5000000000
N             0.5331136647        0.8670437267        0.5000000000
N             0.7333227218        0.0666075855        0.5000000000
N             0.7333105138        0.2666894862        0.5000000000
N             0.7329092973        0.4664743375        0.5000000000
N             0.7338539111        0.6666314843        0.5000000000
N             0.7341995941        0.8672293548        0.5000000000
N             0.9333378671        0.0666621329        0.5000000000
N             0.9333924145        0.2666772782        0.5000000000
N             0.9331041049        0.4666207441        0.5000000000
N             0.9333168842        0.6666644658        0.5000000000
N             0.9333076067        0.8665678053        0.5000000000



     Writing output data file ./TMP_DIR/hBN.save/
     NEW-OLD atomic charge density approx. for the potential

     Check: negative core charge=   -0.000007

     negative rho (up, down):  1.548E-02 0.000E+00
     extrapolated charge  199.40064, renormalised to  199.00000

     total cpu time spent up to now is      329.4 secs

     Self-consistent Calculation

     iteration #  1     ecut=    60.00 Ry     beta= 0.70
     CG style diagonalization
     c_bands:  1 eigenvalues not converged
     ethr =  1.00E-06,  avg # of iterations = 22.3

     negative rho (up, down):  1.527E-02 0.000E+00

     total cpu time spent up to now is      447.5 secs

     total energy              =    -983.45380106 Ry
     estimated scf accuracy    <       0.05557388 Ry

     iteration #  2     ecut=    60.00 Ry     beta= 0.70
     CG style diagonalization
     ethr =  2.79E-05,  avg # of iterations =  4.3

     negative rho (up, down):  1.547E-02 0.000E+00

     total cpu time spent up to now is      468.0 secs

     total energy              =    -983.46726951 Ry
     estimated scf accuracy    <       0.06698977 Ry

     iteration #  3     ecut=    60.00 Ry     beta= 0.70
     CG style diagonalization
     ethr =  2.79E-05,  avg # of iterations =  3.5

     negative rho (up, down):  1.561E-02 0.000E+00

     total cpu time spent up to now is      483.5 secs

     total energy              =    -983.48042245 Ry
     estimated scf accuracy    <       0.00209158 Ry

     iteration #  4     ecut=    60.00 Ry     beta= 0.70
     CG style diagonalization
     ethr =  1.05E-06,  avg # of iterations =  4.3

     negative rho (up, down):  1.569E-02 0.000E+00

     total cpu time spent up to now is      503.7 secs

     total energy              =    -983.48148915 Ry
     estimated scf accuracy    <       0.00075249 Ry

     iteration #  5     ecut=    60.00 Ry     beta= 0.70
     CG style diagonalization
     ethr =  3.78E-07,  avg # of iterations =  3.4

     negative rho (up, down):  1.571E-02 0.000E+00

     total cpu time spent up to now is      518.8 secs

     total energy              =    -983.48161770 Ry
     estimated scf accuracy    <       0.00002947 Ry

     iteration #  6     ecut=    60.00 Ry     beta= 0.70
     CG style diagonalization
     ethr =  1.48E-08,  avg # of iterations =  4.3

     negative rho (up, down):  1.572E-02 0.000E+00

     total cpu time spent up to now is      538.8 secs

     total energy              =    -983.48163245 Ry
     estimated scf accuracy    <       0.00001336 Ry

     iteration #  7     ecut=    60.00 Ry     beta= 0.70
     CG style diagonalization
     ethr =  6.71E-09,  avg # of iterations =  3.6

     negative rho (up, down):  1.572E-02 0.000E+00

     total cpu time spent up to now is      554.7 secs

     total energy              =    -983.48163469 Ry
     estimated scf accuracy    <       0.00000114 Ry

     iteration #  8     ecut=    60.00 Ry     beta= 0.70
     CG style diagonalization
     ethr =  5.74E-10,  avg # of iterations =  4.0

     negative rho (up, down):  1.572E-02 0.000E+00

     total cpu time spent up to now is      572.9 secs

     total energy              =    -983.48163514 Ry
     estimated scf accuracy    <       0.00000026 Ry

     iteration #  9     ecut=    60.00 Ry     beta= 0.70
     CG style diagonalization
     ethr =  1.31E-10,  avg # of iterations =  3.6

     negative rho (up, down):  1.572E-02 0.000E+00

     total cpu time spent up to now is      588.9 secs

     total energy              =    -983.48163515 Ry
     estimated scf accuracy    <       0.00000006 Ry

     iteration # 10     ecut=    60.00 Ry     beta= 0.70
     CG style diagonalization
     ethr =  3.22E-11,  avg # of iterations =  3.9

     negative rho (up, down):  1.572E-02 0.000E+00

     total cpu time spent up to now is      606.6 secs

     total energy              =    -983.48163517 Ry
     estimated scf accuracy    <          4.1E-09 Ry

     iteration # 11     ecut=    60.00 Ry     beta= 0.70
     CG style diagonalization
     ethr =  2.04E-12,  avg # of iterations =  3.8

     negative rho (up, down):  1.572E-02 0.000E+00

     total cpu time spent up to now is      624.2 secs

     total energy              =    -983.48163517 Ry
     estimated scf accuracy    <          8.0E-10 Ry

     iteration # 12     ecut=    60.00 Ry     beta= 0.70
     CG style diagonalization
     ethr =  4.03E-13,  avg # of iterations =  3.7

     negative rho (up, down):  1.572E-02 0.000E+00

     total cpu time spent up to now is      641.3 secs

     total energy              =    -983.48163517 Ry
     estimated scf accuracy    <          4.8E-11 Ry

     iteration # 13     ecut=    60.00 Ry     beta= 0.70
     CG style diagonalization
     ethr =  1.00E-13,  avg # of iterations =  3.2

     negative rho (up, down):  1.572E-02 0.000E+00

     total cpu time spent up to now is      655.3 secs

     total energy              =    -983.48163517 Ry
     estimated scf accuracy    <          6.4E-12 Ry

     iteration # 14     ecut=    60.00 Ry     beta= 0.70
     CG style diagonalization
     ethr =  1.00E-13,  avg # of iterations =  3.0

     negative rho (up, down):  1.572E-02 0.000E+00

     total cpu time spent up to now is      668.2 secs

     End of self-consistent calculation

          k = 0.0000 0.0000 0.0000 (108987 PWs)   bands (ev):

   -23.4552 -22.9987 -22.7315 -22.7300 -22.7209 -22.5899 -22.4949 -21.6820
   -21.4211 -21.4096 -21.3976 -21.2168 -21.2159 -21.0436 -20.9243 -20.9208
   -20.9037 -20.5452 -20.5302 -20.1310 -20.1191 -20.1176 -20.0828 -18.7634
   -16.6489 -14.6429 -14.2724 -14.2606 -14.2343 -14.1646 -14.1195 -14.0510
   -13.9271 -13.8739 -13.7894 -13.6504 -13.5250 -12.4573 -12.3829 -12.3548
   -12.3074 -12.0962 -12.0542 -11.9470 -11.7855 -11.7546 -11.6446 -11.5944
   -11.4430 -11.0252 -10.7344 -10.6506 -10.5986 -10.5463 -10.4386 -10.3343
   -10.1560 -10.0603 -10.0590 -10.0585 -10.0492  -9.9389  -9.9352  -9.9189
    -9.8715  -9.8589  -9.8355  -9.8093  -9.8021  -9.7701  -9.5911  -9.4325
    -9.2268  -8.9972  -8.4950  -8.4477  -8.4369  -8.3745  -8.2419  -8.2330
    -8.2229  -8.2163  -8.0617  -8.0209  -7.8415  -7.6703  -7.5390  -7.5294
    -7.5237  -7.5073  -7.2969  -7.1026  -6.6149  -6.5054  -6.3258  -6.2951
    -6.2874  -6.2600  -5.9543  -4.8562  -1.6043  -1.1475  -1.0601  -1.0528
    -1.0465  -1.0100  -0.9151  -0.3097  -0.2155  -0.0845  -0.0518  -0.0144
     0.0361   0.0640   0.0681   0.0689   0.0707   0.1072   0.1369   0.2244

          k =-0.0001-0.5769 0.0000 (108768 PWs)   bands (ev):

   -23.3230 -23.2344 -22.9891 -22.8042 -22.4252 -22.2103 -22.1005 -22.0399
   -21.9267 -21.7440 -21.3293 -21.2698 -21.2086 -20.9977 -20.6404 -20.5473
   -20.5241 -20.5078 -20.4804 -20.4617 -20.4445 -20.0993 -20.0687 -18.7735
   -16.6695 -14.8054 -14.5270 -14.3688 -14.3521 -14.2580 -13.8801 -13.7025
   -13.6396 -13.6274 -13.5248 -13.3776 -13.1011 -13.0363 -12.9199 -12.7505
   -12.6497 -12.5767 -11.9353 -11.9191 -11.5665 -11.5079 -11.4671 -11.2781
   -11.1899 -10.9227 -10.8773 -10.7975 -10.7490 -10.7230 -10.5043 -10.4349
   -10.4170 -10.3185 -10.3174 -10.2176 -10.1043 -10.0676 -10.0177  -9.9329
    -9.7453  -9.4558  -9.4151  -9.3459  -9.2884  -9.2852  -9.2472  -9.2371
    -9.2179  -9.1471  -9.0442  -8.9306  -8.7813  -8.7631  -8.3414  -8.2219
    -8.1418  -8.1019  -8.0358  -7.9931  -7.9322  -7.8196  -7.6367  -7.0897
    -6.9654  -6.9459  -6.9246  -6.8671  -6.8479  -6.8115  -6.8044  -6.6158
    -6.5532  -6.2766  -5.8989  -4.9177  -1.5167  -1.0427  -0.9966  -0.9000
    -0.8534  -0.7943  -0.7726  -0.7548  -0.6854  -0.3992  -0.2511  -0.2071
    -0.1867  -0.1669  -0.1419   0.0365   0.0733   0.6197   0.6283   0.7325

          k = 0.4994-0.2883 0.0000 (108768 PWs)   bands (ev):

   -23.3489 -23.1948 -22.9696 -22.8455 -22.4230 -22.2191 -22.1091 -22.0647
   -21.9306 -21.5862 -21.3868 -21.2670 -21.2635 -21.0306 -20.6230 -20.5362
   -20.5281 -20.5082 -20.4795 -20.4627 -20.4532 -20.0819 -20.0549 -18.7858
   -16.6661 -14.8316 -14.4241 -14.3796 -14.3593 -14.2821 -13.8255 -13.7578
   -13.7225 -13.6147 -13.5132 -13.5077 -13.0180 -12.9917 -12.8639 -12.7463
   -12.7389 -12.4192 -12.0470 -11.9041 -11.5512 -11.4637 -11.4491 -11.3457
   -11.1291 -10.9568 -10.8694 -10.8513 -10.8161 -10.7265 -10.5140 -10.4389
   -10.4209 -10.3399 -10.2945 -10.2480 -10.0647 -10.0484 -10.0192  -9.9620
    -9.6013  -9.4517  -9.4279  -9.3552  -9.2618  -9.2477  -9.2456  -9.2131
    -9.1607  -9.1523  -9.0180  -8.9503  -8.9291  -8.7036  -8.6102  -8.2084
    -8.1703  -8.0413  -8.0373  -7.9946  -7.8958  -7.7724  -7.5644  -7.0560
    -6.9546  -6.9480  -6.9158  -6.8711  -6.8462  -6.8127  -6.7732  -6.6963
    -6.4807  -6.3532  -5.9456  -4.8862  -1.5270  -1.0389  -1.0181  -0.8750
    -0.8580  -0.7903  -0.7875  -0.7469  -0.7135  -0.3015  -0.2463  -0.2391
    -0.1975  -0.1811  -0.1329   0.0317   0.0877   0.6135   0.6287   0.7842

     the Fermi energy is    -4.8947 ev

!    total energy              =    -983.48163517 Ry

     total all-electron energy =     -3944.390620 Ry
     estimated scf accuracy    <          8.3E-13 Ry
     smearing contrib. (-TS)   =      -0.00253640 Ry
     internal energy E=F+TS    =    -983.47909877 Ry

     The total energy is F=E-TS. E is the sum of the following terms:
     one-electron contribution =   -6165.72584454 Ry
     hartree contribution      =    3113.68929615 Ry
     xc contribution           =    -219.30905001 Ry
     ewald contribution        =    2614.74668050 Ry
     one-center paw contrib.   =    -326.88018087 Ry

     convergence has been achieved in  14 iterations

     negative rho (up, down):  1.572E-02 0.000E+00

     Forces acting on atoms (cartesian axes, Ry/au):

     atom    1 type  1   force =    -0.00035360   -0.01556687    0.00000000
     atom    2 type  1   force =     0.00131204    0.00029286    0.00000000
     atom    3 type  1   force =    -0.01457094    0.00034187    0.00000000
     atom    4 type  1   force =    -0.00257120    0.00146310    0.00000000
     atom    5 type  1   force =    -0.00140845    0.00081317    0.00000000
     atom    6 type  1   force =     0.00523252   -0.00959997    0.00000000
     atom    7 type  1   force =     0.01927696    0.03906281    0.00000000
     atom    8 type  1   force =     0.05398978   -0.01931082    0.00000000
     atom    9 type  1   force =    -0.03366526    0.01943665    0.00000000
     atom   10 type  1   force =    -0.00255269    0.00149518    0.00000000
     atom   11 type  1   force =    -0.00166703    0.00690083    0.00000000
     atom   12 type  1   force =    -0.00304847    0.02647712    0.00000000
     atom   13 type  3   force =     0.06405176   -0.03698030    0.00000000
     atom   14 type  1   force =     0.04371855   -0.03710111    0.00000000
     atom   15 type  1   force =    -0.00758153    0.01244787    0.00000000
     atom   16 type  1   force =    -0.00002685    0.00140075    0.00000000
     atom   17 type  1   force =    -0.00337603    0.00194915    0.00000000
     atom   18 type  1   force =    -0.02445409   -0.01059851    0.00000000
     atom   19 type  1   force =    -0.02419090   -0.03622574    0.00000000
     atom   20 type  1   force =     0.00040239   -0.00128269    0.00000000
     atom   21 type  1   force =     0.00006070   -0.00003505    0.00000000
     atom   22 type  1   force =    -0.00122652   -0.00067712    0.00000000
     atom   23 type  1   force =    -0.00680981   -0.00200672    0.00000000
     atom   24 type  1   force =     0.01093008    0.00026849    0.00000000
     atom   25 type  1   force =     0.01330450    0.00808966    0.00000000
     atom   26 type  2   force =    -0.00276996    0.00167834    0.00000000
     atom   27 type  2   force =    -0.00903002   -0.00400317    0.00000000
     atom   28 type  2   force =    -0.00689704    0.00098172    0.00000000
     atom   29 type  2   force =     0.00482973    0.00096498    0.00000000
     atom   30 type  2   force =     0.00277863   -0.00160424    0.00000000
     atom   31 type  2   force =     0.00157461   -0.00382157    0.00000000
     atom   32 type  2   force =     0.00627507   -0.03560861    0.00000000
     atom   33 type  3   force =    -0.09281236   -0.04261588    0.00000000
     atom   34 type  2   force =    -0.04220686    0.02436814    0.00000000
     atom   35 type  2   force =     0.00157917   -0.00466516    0.00000000
     atom   36 type  2   force =    -0.00007410   -0.00274138    0.00000000
     atom   37 type  2   force =    -0.00296297   -0.00220442    0.00000000
     atom   38 type  2   force =     0.02749845   -0.01587624    0.00000000
     atom   39 type  3   force =    -0.00949975    0.10168580    0.00000000
     atom   40 type  2   force =    -0.00429872    0.00548215    0.00000000
     atom   41 type  2   force =    -0.00005236   -0.00276165    0.00000000
     atom   42 type  2   force =     0.00256138   -0.00147881    0.00000000
     atom   43 type  2   force =     0.00042760    0.00366821    0.00000000
     atom   44 type  2   force =     0.03397550    0.01236994    0.00000000
     atom   45 type  2   force =    -0.00104817    0.00982181    0.00000000
     atom   46 type  2   force =    -0.00058472    0.00033759    0.00000000
     atom   47 type  2   force =     0.00236548    0.00142617    0.00000000
     atom   48 type  2   force =     0.00233706    0.00143486    0.00000000
     atom   49 type  2   force =     0.00409688    0.00054714    0.00000000
     atom   50 type  2   force =    -0.00283847    0.00155968    0.00000000

     Total force =     0.217708     Total SCF correction =     0.000001


     Computing stress (Cartesian axis) and pressure


     negative rho (up, down):  1.572E-02 0.000E+00
          total   stress  (Ry/bohr**3)                   (kbar)     P=        2.80
   0.00003046  -0.00000003   0.00000000            4.48       -0.00        0.00
  -0.00000003   0.00003043   0.00000000           -0.00        4.48        0.00
   0.00000000   0.00000000  -0.00000380            0.00        0.00       -0.56

     Energy error            =      2.2E-02 Ry
     Gradient error          =      1.0E-01 Ry/Bohr
     Cell gradient error     =      4.5E+00 kbar

     number of scf cycles    =   2
     number of bfgs steps    =   1

     enthalpy           old  =    -983.4598125574 Ry
     enthalpy           new  =    -983.4816351715 Ry

     CASE: enthalpy          _new < enthalpy          _old

     new trust radius        =       0.0510275801 bohr
     new conv_thr            =            1.0E-12 Ry

     new unit-cell volume =  13908.56012 a.u.^3 (  2061.03597 Ang^3 )
     density =      0.49763 g/cm^3

CELL_PARAMETERS (alat= 23.76463845)
   1.001771490  -0.000275783   0.000000000
  -0.501124581   0.867421668   0.000000000
   0.000000000   0.000000000   1.192775420

ATOMIC_POSITIONS (crystal)
B             0.0663374452        0.1331366583        0.5000000000
B             0.0668004152        0.3332705168        0.5000000000
B             0.0663999446        0.5334346905        0.5000000000
B             0.0666743549        0.7332882760        0.5000000000
B             0.0667017219        0.9332982781        0.5000000000
B             0.2667126528        0.1328705842        0.5000000000
B             0.2657622135        0.3298755700        0.5000000000
B             0.2662094361        0.5362978267        0.5000000000
B             0.2663711565        0.7336288435        0.5000000000
B             0.2667117240        0.9333256451        0.5000000000
B             0.4666251859        0.1333473297        0.5000000000
B             0.4661860721        0.3336086011        0.5000000000
C             0.4676597100        0.5323402900        0.5000000000
B             0.4637021733        0.7337905639        0.5000000000
B             0.4665653095        0.9336000554        0.5000000000
B             0.6665763125        0.1333542275        0.5000000000
B             0.6666835595        0.3333164405        0.5000000000
B             0.6663913989        0.5338139279        0.5000000000
B             0.6701244300        0.7342377865        0.5000000000
B             0.6667294832        0.9331995848        0.5000000000
B             0.8667733896        0.1332266104        0.5000000000
B             0.8666457725        0.3334236875        0.5000000000
B             0.8666526703        0.5333748141        0.5000000000
B             0.8671294158        0.7332873472        0.5000000000
B             0.8668633417        0.9336625548        0.5000000000
N             0.1333924496        0.0667486748        0.5000000000
N             0.1323990828        0.2655838474        0.5000000000
N             0.1327424245        0.4669402132        0.5000000000
N             0.1331937958        0.6666586763        0.5000000000
N             0.1333211003        0.8666788997        0.5000000000
N             0.3333183322        0.0665625632        0.5000000000
N             0.3329769118        0.2649542343        0.5000000000
C             0.3385043653        0.4684560085        0.5000000000
N             0.3314832832        0.6685167168        0.5000000000
N             0.3333413237        0.8668062042        0.5000000000
N             0.5333381284        0.0668316562        0.5000000000
N             0.5334280868        0.2670635806        0.5000000000
N             0.5322662410        0.4677337590        0.5000000000
C             0.5315439915        0.6614956347        0.5000000000
N             0.5330597868        0.8672575755        0.5000000000
N             0.7332760900        0.0665132097        0.5000000000
N             0.7333555168        0.2666444832        0.5000000000
N             0.7329364194        0.4665719132        0.5000000000
N             0.7350457657        0.6670230882        0.5000000000
N             0.7344161526        0.8676009172        0.5000000000
N             0.9333275663        0.0666724337        0.5000000000
N             0.9334867903        0.2667239100        0.5000000000
N             0.9331683438        0.4666618716        0.5000000000
N             0.9334374368        0.6666816678        0.5000000000
N             0.9332513252        0.8666075504        0.5000000000



     Writing output data file ./TMP_DIR/hBN.save/
     NEW-OLD atomic charge density approx. for the potential

     Check: negative core charge=   -0.000007

     negative rho (up, down):  1.572E-02 0.000E+00
     extrapolated charge  199.23993, renormalised to  199.00000

     total cpu time spent up to now is      679.7 secs

     Self-consistent Calculation

     iteration #  1     ecut=    60.00 Ry     beta= 0.70
     CG style diagonalization
     ethr =  1.00E-06,  avg # of iterations = 18.5

     negative rho (up, down):  1.554E-02 0.000E+00

     total cpu time spent up to now is      778.8 secs

     total energy              =    -983.48895929 Ry
     estimated scf accuracy    <       0.00973116 Ry

     iteration #  2     ecut=    60.00 Ry     beta= 0.70
     CG style diagonalization
     c_bands:  1 eigenvalues not converged
     ethr =  4.89E-06,  avg # of iterations =  4.7

     negative rho (up, down):  1.566E-02 0.000E+00

     total cpu time spent up to now is      801.7 secs

     total energy              =    -983.49256087 Ry
     estimated scf accuracy    <       0.01570679 Ry

     iteration #  3     ecut=    60.00 Ry     beta= 0.70
     CG style diagonalization
     ethr =  4.89E-06,  avg # of iterations =  3.7

     negative rho (up, down):  1.574E-02 0.000E+00

     total cpu time spent up to now is      818.5 secs

     total energy              =    -983.49495246 Ry
     estimated scf accuracy    <       0.00058978 Ry

     iteration #  4     ecut=    60.00 Ry     beta= 0.70
     CG style diagonalization
     ethr =  2.96E-07,  avg # of iterations =  4.0

     negative rho (up, down):  1.578E-02 0.000E+00

     total cpu time spent up to now is      837.4 secs

     total energy              =    -983.49517570 Ry
     estimated scf accuracy    <       0.00020589 Ry

     iteration #  5     ecut=    60.00 Ry     beta= 0.70
     CG style diagonalization
     ethr =  1.03E-07,  avg # of iterations =  3.4

     negative rho (up, down):  1.579E-02 0.000E+00

     total cpu time spent up to now is      852.5 secs

     total energy              =    -983.49521020 Ry
     estimated scf accuracy    <       0.00001051 Ry

     iteration #  6     ecut=    60.00 Ry     beta= 0.70
     CG style diagonalization
     ethr =  5.28E-09,  avg # of iterations =  4.2

     negative rho (up, down):  1.580E-02 0.000E+00

     total cpu time spent up to now is      872.6 secs

     total energy              =    -983.49521431 Ry
     estimated scf accuracy    <       0.00000745 Ry

     iteration #  7     ecut=    60.00 Ry     beta= 0.70
     CG style diagonalization
     ethr =  3.74E-09,  avg # of iterations =  3.4

     negative rho (up, down):  1.580E-02 0.000E+00

     total cpu time spent up to now is      887.6 secs

     total energy              =    -983.49521580 Ry
     estimated scf accuracy    <       0.00000041 Ry

     iteration #  8     ecut=    60.00 Ry     beta= 0.70
     CG style diagonalization
     ethr =  2.04E-10,  avg # of iterations =  3.7

     negative rho (up, down):  1.580E-02 0.000E+00

     total cpu time spent up to now is      904.8 secs

     total energy              =    -983.49521589 Ry
     estimated scf accuracy    <       0.00000009 Ry

     iteration #  9     ecut=    60.00 Ry     beta= 0.70
     CG style diagonalization
     ethr =  4.45E-11,  avg # of iterations =  3.8

     negative rho (up, down):  1.580E-02 0.000E+00

     total cpu time spent up to now is      922.4 secs

     total energy              =    -983.49521591 Ry
     estimated scf accuracy    <          8.6E-09 Ry

     iteration # 10     ecut=    60.00 Ry     beta= 0.70
     CG style diagonalization
     ethr =  4.31E-12,  avg # of iterations =  3.8

     negative rho (up, down):  1.580E-02 0.000E+00

     total cpu time spent up to now is      940.6 secs

     total energy              =    -983.49521591 Ry
     estimated scf accuracy    <          3.6E-09 Ry

     iteration # 11     ecut=    60.00 Ry     beta= 0.70
     CG style diagonalization
     ethr =  1.79E-12,  avg # of iterations =  3.5

     negative rho (up, down):  1.580E-02 0.000E+00

     total cpu time spent up to now is      956.5 secs

     total energy              =    -983.49521591 Ry
     estimated scf accuracy    <          1.4E-10 Ry

     iteration # 12     ecut=    60.00 Ry     beta= 0.70
     CG style diagonalization
     ethr =  1.00E-13,  avg # of iterations =  4.1

     negative rho (up, down):  1.580E-02 0.000E+00

     total cpu time spent up to now is      976.1 secs

     total energy              =    -983.49521591 Ry
     estimated scf accuracy    <          3.2E-11 Ry

     iteration # 13     ecut=    60.00 Ry     beta= 0.70
     CG style diagonalization
     ethr =  1.00E-13,  avg # of iterations =  3.0

     negative rho (up, down):  1.580E-02 0.000E+00

     total cpu time spent up to now is      989.3 secs

     total energy              =    -983.49521591 Ry
     estimated scf accuracy    <          4.1E-12 Ry

     iteration # 14     ecut=    60.00 Ry     beta= 0.70
     CG style diagonalization
     ethr =  1.00E-13,  avg # of iterations =  3.0

     negative rho (up, down):  1.580E-02 0.000E+00

     total cpu time spent up to now is     1002.2 secs

     total energy              =    -983.49521591 Ry
     estimated scf accuracy    <          1.3E-12 Ry

     iteration # 15     ecut=    60.00 Ry     beta= 0.70
     CG style diagonalization
     ethr =  1.00E-13,  avg # of iterations =  3.0

     negative rho (up, down):  1.580E-02 0.000E+00

     total cpu time spent up to now is     1015.2 secs

     End of self-consistent calculation

          k = 0.0000 0.0000 0.0000 (108987 PWs)   bands (ev):

   -23.5170 -23.1187 -22.7333 -22.7218 -22.6899 -22.5407 -22.4745 -21.7023
   -21.4008 -21.3801 -21.3684 -21.2010 -21.2007 -21.0445 -20.9009 -20.8996
   -20.8464 -20.5093 -20.5029 -20.1287 -20.0963 -20.0675 -20.0669 -18.7170
   -16.6940 -14.7842 -14.2589 -14.2515 -14.2126 -14.1475 -14.1190 -14.0143
   -13.9161 -13.8432 -13.8070 -13.6781 -13.5248 -12.4829 -12.3713 -12.3347
   -12.3098 -12.0939 -12.0743 -11.9645 -11.7712 -11.7377 -11.6547 -11.5901
   -11.4411 -11.0293 -10.7203 -10.6414 -10.5967 -10.5144 -10.4424 -10.3448
   -10.2332 -10.0631 -10.0543 -10.0531 -10.0219  -9.9114  -9.8997  -9.8744
    -9.8416  -9.8379  -9.8134  -9.8068  -9.8022  -9.7468  -9.5336  -9.5049
    -9.2470  -9.0072  -8.4621  -8.4616  -8.4134  -8.3355  -8.2335  -8.2107
    -8.2039  -8.1964  -8.0547  -8.0149  -7.8891  -7.6769  -7.6129  -7.5205
    -7.5196  -7.4661  -7.2918  -7.1077  -6.7222  -6.7218  -6.3287  -6.2927
    -6.2584  -6.2396  -5.9932  -4.9687  -1.7451  -1.1486  -1.0844  -1.0532
    -1.0375  -1.0109  -0.9222  -0.3085  -0.2230  -0.0883  -0.0751  -0.0118
    -0.0058   0.0580   0.0667   0.0719   0.0963   0.1062   0.1431   0.2116

          k =-0.0002-0.5765 0.0000 (108768 PWs)   bands (ev):

   -23.4451 -23.2234 -23.0093 -22.7816 -22.4595 -22.1886 -22.0902 -22.0157
   -21.9036 -21.7182 -21.3092 -21.2379 -21.1959 -20.9557 -20.6519 -20.5205
   -20.5138 -20.4917 -20.4688 -20.4202 -20.3925 -20.0686 -20.0451 -18.7260
   -16.7151 -14.8936 -14.5502 -14.3516 -14.3427 -14.2383 -13.8909 -13.6770
   -13.6473 -13.6168 -13.4937 -13.4204 -13.1131 -13.0185 -12.9033 -12.7668
   -12.6652 -12.5701 -11.9267 -11.8987 -11.5819 -11.4861 -11.4581 -11.2942
   -11.1602 -10.9269 -10.8817 -10.8147 -10.7459 -10.7272 -10.5016 -10.4720
   -10.4158 -10.3296 -10.2989 -10.1948 -10.1013 -10.0747  -9.9773  -9.9075
    -9.7398  -9.4884  -9.3977  -9.3285  -9.2905  -9.2513  -9.2282  -9.1980
    -9.1930  -9.0976  -9.0607  -8.9102  -8.7881  -8.7566  -8.3329  -8.2728
    -8.1635  -8.0903  -8.0085  -7.9822  -7.9080  -7.8057  -7.5985  -7.1041
    -7.0085  -6.9526  -6.9439  -6.9086  -6.8598  -6.8409  -6.8166  -6.7890
    -6.5713  -6.2697  -5.9151  -5.0333  -1.6629  -1.0531  -1.0038  -0.9045
    -0.8514  -0.7993  -0.7815  -0.7575  -0.6880  -0.4248  -0.2547  -0.2081
    -0.1986  -0.1698  -0.1109   0.0379   0.0684   0.6159   0.6332   0.7268

          k = 0.4990-0.2881 0.0000 (108768 PWs)   bands (ev):

   -23.4609 -23.1726 -23.0183 -22.8303 -22.4512 -22.1997 -22.0840 -22.0171
   -21.9108 -21.5840 -21.3718 -21.2642 -21.2298 -20.9952 -20.5955 -20.5278
   -20.4939 -20.4909 -20.4718 -20.4277 -20.4124 -20.0777 -20.0086 -18.7392
   -16.7115 -14.9158 -14.4316 -14.3944 -14.3627 -14.2410 -13.8500 -13.7482
   -13.7457 -13.5782 -13.5042 -13.4927 -13.0104 -12.9769 -12.8763 -12.7324
   -12.7300 -12.4420 -12.0666 -11.8820 -11.5741 -11.4982 -11.4141 -11.3662
   -11.0767 -10.9854 -10.8980 -10.8468 -10.8118 -10.6979 -10.4948 -10.4256
   -10.4246 -10.3264 -10.3188 -10.2341 -10.0770 -10.0383  -9.9851  -9.9789
    -9.5608  -9.4851  -9.3864  -9.3411  -9.2531  -9.2299  -9.2247  -9.1815
    -9.1470  -9.1360  -9.0007  -8.9618  -8.9096  -8.6889  -8.5917  -8.2028
    -8.1897  -8.0384  -8.0148  -7.9913  -7.9139  -7.7544  -7.5788  -7.0596
    -7.0299  -6.9637  -6.9144  -6.9130  -6.8668  -6.8253  -6.8183  -6.7896
    -6.4873  -6.3639  -5.9730  -4.9974  -1.6672  -1.0461  -1.0364  -0.8913
    -0.8634  -0.7840  -0.7777  -0.7388  -0.7134  -0.3335  -0.2480  -0.2361
    -0.1964  -0.1876  -0.1573   0.0290   0.0855   0.6178   0.6309   0.7495

     the Fermi energy is    -5.0084 ev

!    total energy              =    -983.49521591 Ry

     total all-electron energy =     -3944.404201 Ry
     estimated scf accuracy    <          1.8E-13 Ry
     smearing contrib. (-TS)   =      -0.00250071 Ry
     internal energy E=F+TS    =    -983.49271521 Ry

     The total energy is F=E-TS. E is the sum of the following terms:
     one-electron contribution =   -6157.96345230 Ry
     hartree contribution      =    3109.75727176 Ry
     xc contribution           =    -219.21939052 Ry
     ewald contribution        =    2610.81063426 Ry
     one-center paw contrib.   =    -326.87777840 Ry

     convergence has been achieved in  15 iterations

     negative rho (up, down):  1.580E-02 0.000E+00

     Forces acting on atoms (cartesian axes, Ry/au):

     atom    1 type  1   force =    -0.00134959   -0.00404865    0.00000000
     atom    2 type  1   force =    -0.00036546    0.00171789    0.00000000
     atom    3 type  1   force =    -0.00285446    0.00157414    0.00000000
     atom    4 type  1   force =     0.00178808   -0.00043674    0.00000000
     atom    5 type  1   force =    -0.00047585    0.00027473    0.00000000
     atom    6 type  1   force =     0.00194357   -0.01556596    0.00000000
     atom    7 type  1   force =    -0.00184285    0.00024571    0.00000000
     atom    8 type  1   force =     0.00516259    0.00091285    0.00000000
     atom    9 type  1   force =    -0.02326708    0.01343326    0.00000000
     atom   10 type  1   force =     0.00127226   -0.00133015    0.00000000
     atom   11 type  1   force =    -0.00100766    0.00142144    0.00000000
     atom   12 type  1   force =     0.00039809   -0.00831382    0.00000000
     atom   13 type  3   force =    -0.01007308    0.00581570    0.00000000
     atom   14 type  1   force =     0.00179075   -0.00492736    0.00000000
     atom   15 type  1   force =    -0.00279048    0.00168497    0.00000000
     atom   16 type  1   force =     0.00171483   -0.00158828    0.00000000
     atom   17 type  1   force =     0.00039913   -0.00023044    0.00000000
     atom   18 type  1   force =     0.00739902    0.00381216    0.00000000
     atom   19 type  1   force =    -0.00113421    0.00147310    0.00000000
     atom   20 type  1   force =    -0.00167046   -0.00054245    0.00000000
     atom   21 type  1   force =    -0.00105101    0.00060680    0.00000000
     atom   22 type  1   force =     0.00223291   -0.00069095    0.00000000
     atom   23 type  1   force =    -0.00173483    0.00016194    0.00000000
     atom   24 type  1   force =     0.01445230    0.00609980    0.00000000
     atom   25 type  1   force =     0.00283144    0.00319310    0.00000000
     atom   26 type  2   force =     0.00068233   -0.00354790    0.00000000
     atom   27 type  2   force =     0.00676025   -0.00053201    0.00000000
     atom   28 type  2   force =     0.00449169    0.00368868    0.00000000
     atom   29 type  2   force =    -0.00994049    0.00141605    0.00000000
     atom   30 type  2   force =    -0.00066415    0.00038345    0.00000000
     atom   31 type  2   force =     0.00297938   -0.00250000    0.00000000
     atom   32 type  2   force =     0.00734149   -0.00010183    0.00000000
     atom   33 type  3   force =     0.00213590   -0.00282563    0.00000000
     atom   34 type  2   force =    -0.00285557    0.00164866    0.00000000
     atom   35 type  2   force =    -0.00619658    0.00790070    0.00000000
     atom   36 type  2   force =    -0.00289477    0.00531886    0.00000000
     atom   37 type  2   force =    -0.00556225    0.00641014    0.00000000
     atom   38 type  2   force =     0.01233704   -0.00712279    0.00000000
     atom   39 type  3   force =     0.00351502   -0.00043693    0.00000000
     atom   40 type  2   force =    -0.00094865   -0.00573426    0.00000000
     atom   41 type  2   force =    -0.00037546    0.00120449    0.00000000
     atom   42 type  2   force =    -0.00175166    0.00101132    0.00000000
     atom   43 type  2   force =    -0.00833247    0.00161199    0.00000000
     atom   44 type  2   force =     0.00375893   -0.00630701    0.00000000
     atom   45 type  2   force =     0.00384086   -0.00558854    0.00000000
     atom   46 type  2   force =     0.00012725   -0.00007347    0.00000000
     atom   47 type  2   force =    -0.00123085   -0.00027709    0.00000000
     atom   48 type  2   force =    -0.00605366   -0.00015248    0.00000000
     atom   49 type  2   force =     0.00365475   -0.00133021    0.00000000
     atom   50 type  2   force =     0.00341373    0.00118303    0.00000000

     Total force =     0.051272     Total SCF correction =     0.000001


     Computing stress (Cartesian axis) and pressure


     negative rho (up, down):  1.580E-02 0.000E+00
          total   stress  (Ry/bohr**3)                   (kbar)     P=        1.31
   0.00001760  -0.00000412   0.00000000            2.59       -0.61        0.00
  -0.00000412   0.00001285   0.00000000           -0.61        1.89        0.00
   0.00000000   0.00000000  -0.00000378            0.00        0.00       -0.56

     Energy error            =      1.4E-02 Ry
     Gradient error          =      2.3E-02 Ry/Bohr
     Cell gradient error     =      2.6E+00 kbar

     number of scf cycles    =   3
     number of bfgs steps    =   2

     enthalpy           old  =    -983.4816351715 Ry
     enthalpy           new  =    -983.4952159143 Ry

     CASE: enthalpy          _new < enthalpy          _old

     new trust radius        =       0.0303692946 bohr
     new conv_thr            =            1.0E-12 Ry

     new unit-cell volume =  13921.52330 a.u.^3 (  2062.95691 Ang^3 )
     density =      0.49717 g/cm^3

CELL_PARAMETERS (alat= 23.76463845)
   1.002302415  -0.000387014   0.000000000
  -0.501486371   0.867825847   0.000000000
   0.000000000   0.000000000   1.192775420

ATOMIC_POSITIONS (crystal)
B             0.0661480583        0.1328850578        0.5000000000
B             0.0668336544        0.3333566002        0.5000000000
B             0.0662747963        0.5335165870        0.5000000000
B             0.0667370362        0.7332697397        0.5000000000
B             0.0666861731        0.9333138269        0.5000000000
B             0.2664063749        0.1320527502        0.5000000000
B             0.2657766477        0.3299402728        0.5000000000
B             0.2665558528        0.5363395015        0.5000000000
B             0.2656347711        0.7343652289        0.5000000000
B             0.2667302603        0.9332629638        0.5000000000
B             0.4666220657        0.1334388666        0.5000000000
B             0.4660167380        0.3332717769        0.5000000000
C             0.4674909777        0.5325090223        0.5000000000
B             0.4636604985        0.7334441472        0.5000000000
B             0.4664834130        0.9337252037        0.5000000000
B             0.6666114353        0.1332787924        0.5000000000
B             0.6666898229        0.3333101771        0.5000000000
B             0.6667282231        0.5339832620        0.5000000000
B             0.6700597272        0.7342233523        0.5000000000
B             0.6666433998        0.9331663456        0.5000000000
B             0.8667448314        0.1332551686        0.5000000000
B             0.8667212076        0.3333885647        0.5000000000
B             0.8665611334        0.5333779343        0.5000000000
B             0.8679472498        0.7335936251        0.5000000000
B             0.8671149422        0.9338519417        0.5000000000
N             0.1333295952        0.0665766356        0.5000000000
N             0.1326354929        0.2655267146        0.5000000000
N             0.1330045288        0.4671330724        0.5000000000
N             0.1328077146        0.6667325956        0.5000000000
N             0.1333062331        0.8666937669        0.5000000000
N             0.3333833988        0.0664240953        0.5000000000
N             0.3332521476        0.2648168684        0.5000000000
C             0.3383236496        0.4682225411        0.5000000000
N             0.3312981799        0.6687018201        0.5000000000
N             0.3332674044        0.8671922854        0.5000000000
N             0.5333416705        0.0670939344        0.5000000000
N             0.5333380718        0.2673863023        0.5000000000
N             0.5326514897        0.4673485103        0.5000000000
C             0.5317774589        0.6616763504        0.5000000000
N             0.5328669276        0.8669954712        0.5000000000
N             0.7332849082        0.0665631267        0.5000000000
N             0.7333093211        0.2666906789        0.5000000000
N             0.7326136977        0.4666619282        0.5000000000
N             0.7351831316        0.6667478524        0.5000000000
N             0.7344732854        0.8673645071        0.5000000000
N             0.9333301939        0.0666698061        0.5000000000
N             0.9334368733        0.2667150918        0.5000000000
N             0.9329060656        0.4666583295        0.5000000000
N             0.9335759047        0.6666166012        0.5000000000
N             0.9334233644        0.8666704048        0.5000000000



     Writing output data file ./TMP_DIR/hBN.save/
     NEW-OLD atomic charge density approx. for the potential

     Check: negative core charge=   -0.000007

     negative rho (up, down):  1.582E-02 0.000E+00
     extrapolated charge  199.18529, renormalised to  199.00000

     total cpu time spent up to now is     1026.5 secs

     Self-consistent Calculation

     iteration #  1     ecut=    60.00 Ry     beta= 0.70
     CG style diagonalization
     ethr =  1.00E-06,  avg # of iterations = 13.8

     negative rho (up, down):  1.569E-02 0.000E+00

     total cpu time spent up to now is     1100.0 secs

     total energy              =    -983.49487004 Ry
     estimated scf accuracy    <       0.00197288 Ry

     iteration #  2     ecut=    60.00 Ry     beta= 0.70
     CG style diagonalization
     c_bands:  1 eigenvalues not converged
     ethr =  9.91E-07,  avg # of iterations =  5.0

     negative rho (up, down):  1.576E-02 0.000E+00

     total cpu time spent up to now is     1124.6 secs

     total energy              =    -983.49635697 Ry
     estimated scf accuracy    <       0.00387401 Ry

     iteration #  3     ecut=    60.00 Ry     beta= 0.70
     CG style diagonalization
     ethr =  9.91E-07,  avg # of iterations =  3.7

     negative rho (up, down):  1.582E-02 0.000E+00

     total cpu time spent up to now is     1141.7 secs

     total energy              =    -983.49670742 Ry
     estimated scf accuracy    <       0.00028383 Ry

     iteration #  4     ecut=    60.00 Ry     beta= 0.70
     CG style diagonalization
     ethr =  1.43E-07,  avg # of iterations =  3.5

     negative rho (up, down):  1.585E-02 0.000E+00

     total cpu time spent up to now is     1157.8 secs

     total energy              =    -983.49672954 Ry
     estimated scf accuracy    <       0.00007784 Ry

     iteration #  5     ecut=    60.00 Ry     beta= 0.70
     CG style diagonalization
     ethr =  3.91E-08,  avg # of iterations =  3.6

     negative rho (up, down):  1.586E-02 0.000E+00

     total cpu time spent up to now is     1174.3 secs

     total energy              =    -983.49674755 Ry
     estimated scf accuracy    <       0.00000340 Ry

     iteration #  6     ecut=    60.00 Ry     beta= 0.70
     CG style diagonalization
     ethr =  1.71E-09,  avg # of iterations =  4.0

     negative rho (up, down):  1.586E-02 0.000E+00

     total cpu time spent up to now is     1193.1 secs

     total energy              =    -983.49674882 Ry
     estimated scf accuracy    <       0.00000182 Ry

     iteration #  7     ecut=    60.00 Ry     beta= 0.70
     CG style diagonalization
     ethr =  9.14E-10,  avg # of iterations =  3.5

     negative rho (up, down):  1.586E-02 0.000E+00

     total cpu time spent up to now is     1208.6 secs

     total energy              =    -983.49674912 Ry
     estimated scf accuracy    <       0.00000007 Ry

     iteration #  8     ecut=    60.00 Ry     beta= 0.70
     CG style diagonalization
     ethr =  3.33E-11,  avg # of iterations =  4.4

     negative rho (up, down):  1.586E-02 0.000E+00

     total cpu time spent up to now is     1229.1 secs

     total energy              =    -983.49674915 Ry
     estimated scf accuracy    <       0.00000002 Ry

     iteration #  9     ecut=    60.00 Ry     beta= 0.70
     CG style diagonalization
     ethr =  1.10E-11,  avg # of iterations =  3.3

     negative rho (up, down):  1.586E-02 0.000E+00

     total cpu time spent up to now is     1243.6 secs

     total energy              =    -983.49674915 Ry
     estimated scf accuracy    <          4.8E-09 Ry

     iteration # 10     ecut=    60.00 Ry     beta= 0.70
     CG style diagonalization
     ethr =  2.41E-12,  avg # of iterations =  3.9

     negative rho (up, down):  1.586E-02 0.000E+00

     total cpu time spent up to now is     1261.2 secs

     total energy              =    -983.49674915 Ry
     estimated scf accuracy    <          3.9E-10 Ry

     iteration # 11     ecut=    60.00 Ry     beta= 0.70
     CG style diagonalization
     ethr =  1.96E-13,  avg # of iterations =  3.6

     negative rho (up, down):  1.586E-02 0.000E+00

     total cpu time spent up to now is     1277.2 secs

     total energy              =    -983.49674915 Ry
     estimated scf accuracy    <          1.9E-10 Ry

     iteration # 12     ecut=    60.00 Ry     beta= 0.70
     CG style diagonalization
     ethr =  1.00E-13,  avg # of iterations =  3.1

     negative rho (up, down):  1.586E-02 0.000E+00

     total cpu time spent up to now is     1290.8 secs

     total energy              =    -983.49674915 Ry
     estimated scf accuracy    <          3.0E-11 Ry

     iteration # 13     ecut=    60.00 Ry     beta= 0.70
     CG style diagonalization
     ethr =  1.00E-13,  avg # of iterations =  3.0

     negative rho (up, down):  1.586E-02 0.000E+00

     total cpu time spent up to now is     1303.6 secs

     total energy              =    -983.49674915 Ry
     estimated scf accuracy    <          2.6E-12 Ry

     iteration # 14     ecut=    60.00 Ry     beta= 0.70
     CG style diagonalization
     ethr =  1.00E-13,  avg # of iterations =  3.0

     negative rho (up, down):  1.586E-02 0.000E+00

     total cpu time spent up to now is     1316.3 secs

     End of self-consistent calculation

          k = 0.0000 0.0000 0.0000 (108987 PWs)   bands (ev):

   -23.4773 -23.0704 -22.7325 -22.7276 -22.7045 -22.5239 -22.4441 -21.6683
   -21.3985 -21.3661 -21.3562 -21.2177 -21.2082 -21.0374 -20.9100 -20.8956
   -20.8381 -20.5097 -20.5010 -20.1310 -20.1071 -20.0820 -20.0590 -18.7052
   -16.6908 -14.7398 -14.2666 -14.2528 -14.2043 -14.1545 -14.1099 -14.0152
   -13.9174 -13.8274 -13.8175 -13.6793 -13.5244 -12.4661 -12.3688 -12.3352
   -12.3037 -12.0975 -12.0662 -11.9433 -11.7774 -11.7396 -11.6586 -11.5920
   -11.4379 -11.0206 -10.7098 -10.6342 -10.5879 -10.5097 -10.4411 -10.3600
   -10.1999 -10.0626 -10.0596 -10.0445 -10.0352  -9.9023  -9.8968  -9.8861
    -9.8357  -9.8353  -9.8208  -9.8079  -9.8032  -9.7424  -9.5326  -9.4953
    -9.2560  -9.0023  -8.4689  -8.4324  -8.3980  -8.3577  -8.2315  -8.2223
    -8.1974  -8.1875  -8.0743  -8.0280  -7.9196  -7.6649  -7.6165  -7.5309
    -7.5097  -7.4707  -7.2972  -7.1127  -6.7447  -6.7192  -6.3320  -6.2992
    -6.2612  -6.2550  -5.9796  -4.9773  -1.7422  -1.1497  -1.0726  -1.0721
    -1.0533  -1.0207  -0.9231  -0.3246  -0.2324  -0.0808  -0.0758  -0.0354
    -0.0031   0.0554   0.0649   0.0665   0.0891   0.1051   0.1420   0.2136

          k =-0.0002-0.5763 0.0000 (108768 PWs)   bands (ev):

   -23.3790 -23.2285 -22.9972 -22.7722 -22.4363 -22.1748 -22.0880 -22.0156
   -21.9007 -21.6906 -21.3007 -21.2466 -21.1903 -20.9474 -20.6348 -20.5350
   -20.5070 -20.5015 -20.4855 -20.4283 -20.3749 -20.0817 -20.0443 -18.7144
   -16.7115 -14.8635 -14.5373 -14.3622 -14.3466 -14.2319 -13.8868 -13.6770
   -13.6335 -13.6269 -13.4951 -13.4109 -13.1030 -13.0259 -12.9059 -12.7593
   -12.6468 -12.5686 -11.9286 -11.9011 -11.5628 -11.4948 -11.4641 -11.2875
   -11.1454 -10.9317 -10.8833 -10.7986 -10.7453 -10.7246 -10.5032 -10.4599
   -10.4270 -10.3214 -10.3082 -10.1859 -10.1042 -10.0567  -9.9889  -9.8934
    -9.7433  -9.4694  -9.3823  -9.3169  -9.2987  -9.2536  -9.2278  -9.2016
    -9.1945  -9.1048  -9.0647  -8.9044  -8.7967  -8.7436  -8.3509  -8.2686
    -8.1781  -8.0792  -8.0196  -7.9810  -7.9173  -7.8062  -7.6186  -7.0876
    -7.0260  -6.9646  -6.9348  -6.9161  -6.8775  -6.8447  -6.8214  -6.7903
    -6.5716  -6.2766  -5.9110  -5.0419  -1.6611  -1.0548  -1.0131  -0.9163
    -0.8547  -0.7985  -0.7890  -0.7645  -0.6914  -0.4310  -0.2642  -0.2093
    -0.2022  -0.1714  -0.1248   0.0352   0.0678   0.6125   0.6285   0.7125

          k = 0.4987-0.2879 0.0000 (108768 PWs)   bands (ev):

   -23.4044 -23.1637 -23.0087 -22.8249 -22.4250 -22.1831 -22.0825 -22.0137
   -21.9110 -21.5596 -21.3603 -21.2764 -21.2218 -20.9889 -20.5851 -20.5310
   -20.4989 -20.4840 -20.4731 -20.4396 -20.4164 -20.0995 -19.9990 -18.7274
   -16.7086 -14.8868 -14.4178 -14.3836 -14.3774 -14.2387 -13.8598 -13.7404
   -13.7328 -13.5838 -13.4966 -13.4874 -13.0133 -12.9727 -12.8745 -12.7342
   -12.7259 -12.4474 -12.0578 -11.8856 -11.5722 -11.4895 -11.4095 -11.3676
   -11.0562 -10.9656 -10.8863 -10.8359 -10.8219 -10.6916 -10.4904 -10.4372
   -10.4222 -10.3411 -10.3090 -10.2287 -10.0659 -10.0585  -9.9930  -9.9694
    -9.5429  -9.4650  -9.3784  -9.3280  -9.2630  -9.2276  -9.2231  -9.1806
    -9.1519  -9.1397  -9.0097  -8.9737  -8.9042  -8.6945  -8.6058  -8.2250
    -8.1632  -8.0532  -8.0095  -7.9986  -7.9215  -7.7550  -7.5787  -7.0604
    -7.0233  -6.9553  -6.9193  -6.9057  -6.8839  -6.8513  -6.8318  -6.7958
    -6.4851  -6.3826  -5.9615  -5.0060  -1.6665  -1.0469  -1.0394  -0.9009
    -0.8648  -0.8003  -0.7856  -0.7513  -0.7049  -0.3441  -0.2573  -0.2520
    -0.1975  -0.1880  -0.1478   0.0271   0.0827   0.6061   0.6285   0.7546

     the Fermi energy is    -5.0170 ev

!    total energy              =    -983.49674915 Ry

     total all-electron energy =     -3944.405734 Ry
     estimated scf accuracy    <          2.7E-13 Ry
     smearing contrib. (-TS)   =      -0.00250186 Ry
     internal energy E=F+TS    =    -983.49424729 Ry

     The total energy is F=E-TS. E is the sum of the following terms:
     one-electron contribution =   -6152.18055346 Ry
     hartree contribution      =    3106.84828376 Ry
     xc contribution           =    -219.16710340 Ry
     ewald contribution        =    2607.88235714 Ry
     one-center paw contrib.   =    -326.87723133 Ry

     convergence has been achieved in  14 iterations

     negative rho (up, down):  1.586E-02 0.000E+00

     Forces acting on atoms (cartesian axes, Ry/au):

     atom    1 type  1   force =     0.00245384    0.00123201    0.00000000
     atom    2 type  1   force =     0.00307934    0.00120469    0.00000000
     atom    3 type  1   force =    -0.00029551   -0.00122652    0.00000000
     atom    4 type  1   force =    -0.00388699    0.00178559    0.00000000
     atom    5 type  1   force =     0.00162718   -0.00093946    0.00000000
     atom    6 type  1   force =     0.00191347   -0.00008513    0.00000000
     atom    7 type  1   force =     0.00587912   -0.00656138    0.00000000
     atom    8 type  1   force =    -0.00238605    0.00516863    0.00000000
     atom    9 type  1   force =    -0.00066680    0.00038498    0.00000000
     atom   10 type  1   force =    -0.00348986    0.00247344    0.00000000
     atom   11 type  1   force =    -0.00144821    0.00558718    0.00000000
     atom   12 type  1   force =     0.00111971   -0.00111509    0.00000000
     atom   13 type  3   force =     0.00438500   -0.00253168    0.00000000
     atom   14 type  1   force =    -0.00566919   -0.00051794    0.00000000
     atom   15 type  1   force =     0.00091444    0.00086917    0.00000000
     atom   16 type  1   force =    -0.00103733    0.00183404    0.00000000
     atom   17 type  1   force =    -0.00373482    0.00215630    0.00000000
     atom   18 type  1   force =     0.00152555   -0.00041216    0.00000000
     atom   19 type  1   force =     0.00862188   -0.00181078    0.00000000
     atom   20 type  1   force =     0.00049637   -0.00326913    0.00000000
     atom   21 type  1   force =    -0.00048683    0.00028107    0.00000000
     atom   22 type  1   force =    -0.00210698   -0.00001867    0.00000000
     atom   23 type  1   force =    -0.00556274   -0.00153941    0.00000000
     atom   24 type  1   force =     0.00103045   -0.00161455    0.00000000
     atom   25 type  1   force =     0.00015997   -0.00274109    0.00000000
     atom   26 type  2   force =    -0.00120122   -0.00407098    0.00000000
     atom   27 type  2   force =    -0.00071203   -0.00183934    0.00000000
     atom   28 type  2   force =    -0.00038529    0.00203015    0.00000000
     atom   29 type  2   force =    -0.00659706    0.00072385    0.00000000
     atom   30 type  2   force =     0.00011600   -0.00006697    0.00000000
     atom   31 type  2   force =     0.00209408   -0.00423733    0.00000000
     atom   32 type  2   force =    -0.00383812   -0.00670640    0.00000000
     atom   33 type  3   force =     0.00614730    0.00317454    0.00000000
     atom   34 type  2   force =    -0.00831884    0.00480288    0.00000000
     atom   35 type  2   force =    -0.00392541    0.00535130    0.00000000
     atom   36 type  2   force =     0.00008577    0.00078197    0.00000000
     atom   37 type  2   force =     0.00305907   -0.00351357    0.00000000
     atom   38 type  2   force =    -0.00504916    0.00291513    0.00000000
     atom   39 type  3   force =     0.00032442   -0.00691099    0.00000000
     atom   40 type  2   force =    -0.00195081   -0.00068141    0.00000000
     atom   41 type  2   force =     0.00028967   -0.00107978    0.00000000
     atom   42 type  2   force =     0.00101613   -0.00058666    0.00000000
     atom   43 type  2   force =     0.00457237   -0.00089245    0.00000000
     atom   44 type  2   force =     0.00388885    0.00667711    0.00000000
     atom   45 type  2   force =     0.00123690    0.00153630    0.00000000
[...]
N             0.7327210773        0.4665117169        0.5000000000
N             0.7358459157        0.6669325821        0.5000000000
N             0.7345433349        0.8671351225        0.5000000000
N             0.9333567592        0.0666432408        0.5000000000
N             0.9337329081        0.2668207798        0.5000000000
N             0.9327100642        0.4665606345        0.5000000000
N             0.9336205110        0.6665176636        0.5000000000
N             0.9337173148        0.8667823252        0.5000000000



     Writing output data file ./TMP_DIR/hBN.save/
     NEW-OLD atomic charge density approx. for the potential

     Check: negative core charge=   -0.000007

     negative rho (up, down):  1.594E-02 0.000E+00
     extrapolated charge  198.99987, renormalised to  199.00000

     total cpu time spent up to now is     4418.7 secs

     Self-consistent Calculation

     iteration #  1     ecut=    60.00 Ry     beta= 0.70
     CG style diagonalization
     ethr =  1.00E-06,  avg # of iterations =  2.0

     Threshold (ethr) on eigenvalues was too large:
     Diagonalizing with lowered threshold

     CG style diagonalization
     ethr =  6.58E-13,  avg # of iterations = 15.4

     negative rho (up, down):  1.594E-02 0.000E+00

     total cpu time spent up to now is     4511.1 secs

     total energy              =    -983.49766440 Ry
     estimated scf accuracy    <          4.8E-09 Ry

     iteration #  2     ecut=    60.00 Ry     beta= 0.70
     CG style diagonalization
     ethr =  2.40E-12,  avg # of iterations =  4.0

     negative rho (up, down):  1.594E-02 0.000E+00

     total cpu time spent up to now is     4529.8 secs

     total energy              =    -983.49766440 Ry
     estimated scf accuracy    <          4.9E-09 Ry

     iteration #  3     ecut=    60.00 Ry     beta= 0.70
     CG style diagonalization
     ethr =  2.40E-12,  avg # of iterations =  3.4

     negative rho (up, down):  1.594E-02 0.000E+00

     total cpu time spent up to now is     4545.2 secs

     total energy              =    -983.49766440 Ry
     estimated scf accuracy    <          1.7E-10 Ry

     iteration #  4     ecut=    60.00 Ry     beta= 0.70
     CG style diagonalization
     ethr =  1.00E-13,  avg # of iterations =  4.1

     negative rho (up, down):  1.594E-02 0.000E+00

     total cpu time spent up to now is     4564.5 secs

     total energy              =    -983.49766440 Ry
     estimated scf accuracy    <          5.4E-11 Ry

     iteration #  5     ecut=    60.00 Ry     beta= 0.70
     CG style diagonalization
     ethr =  1.00E-13,  avg # of iterations =  3.0

     negative rho (up, down):  1.594E-02 0.000E+00

     total cpu time spent up to now is     4577.6 secs

     total energy              =    -983.49766440 Ry
     estimated scf accuracy    <          3.3E-12 Ry

     iteration #  6     ecut=    60.00 Ry     beta= 0.70
     CG style diagonalization
     ethr =  1.00E-13,  avg # of iterations =  3.0

     negative rho (up, down):  1.594E-02 0.000E+00

     total cpu time spent up to now is     4590.6 secs

     total energy              =    -983.49766440 Ry
     estimated scf accuracy    <          7.9E-13 Ry

     iteration #  7     ecut=    60.00 Ry     beta= 0.70
     CG style diagonalization
     ethr =  1.00E-13,  avg # of iterations =  3.0

     negative rho (up, down):  1.594E-02 0.000E+00

     total cpu time spent up to now is     4603.4 secs

     total energy              =    -983.49766440 Ry
     estimated scf accuracy    <          1.8E-13 Ry

     iteration #  8     ecut=    60.00 Ry     beta= 0.70
     CG style diagonalization
     ethr =  1.00E-13,  avg # of iterations =  3.0

     negative rho (up, down):  1.594E-02 0.000E+00

     total cpu time spent up to now is     4616.2 secs

     total energy              =    -983.49766440 Ry
     estimated scf accuracy    <          1.1E-13 Ry

     iteration #  9     ecut=    60.00 Ry     beta= 0.70
     CG style diagonalization
     ethr =  1.00E-13,  avg # of iterations =  3.0

     negative rho (up, down):  1.594E-02 0.000E+00

     total cpu time spent up to now is     4629.1 secs

     total energy              =    -983.49766440 Ry
     estimated scf accuracy    <          1.7E-14 Ry

     iteration # 10     ecut=    60.00 Ry     beta= 0.70
     CG style diagonalization
     ethr =  1.00E-13,  avg # of iterations =  3.0

     negative rho (up, down):  1.594E-02 0.000E+00

     total cpu time spent up to now is     4642.0 secs

     End of self-consistent calculation

          k = 0.0000 0.0000 0.0000 (108987 PWs)   bands (ev):

   -23.4828 -23.0722 -22.7419 -22.7275 -22.6934 -22.5106 -22.4470 -21.6761
   -21.3969 -21.3709 -21.3595 -21.2144 -21.2128 -21.0318 -20.9005 -20.8976
   -20.8342 -20.5108 -20.4973 -20.1312 -20.1088 -20.0804 -20.0511 -18.7078
   -16.6654 -14.7367 -14.2700 -14.2536 -14.1959 -14.1516 -14.1145 -14.0053
   -13.9253 -13.8236 -13.8097 -13.6689 -13.5182 -12.4695 -12.3664 -12.3337
   -12.3105 -12.1009 -12.0737 -11.9604 -11.7772 -11.7364 -11.6646 -11.5834
   -11.4267 -11.0198 -10.7099 -10.6368 -10.5928 -10.5078 -10.4417 -10.3552
   -10.2020 -10.0703 -10.0600 -10.0500 -10.0262  -9.9107  -9.8911  -9.8732
    -9.8451  -9.8354  -9.8184  -9.8092  -9.8061  -9.7316  -9.5130  -9.4980
    -9.2554  -9.0007  -8.4691  -8.4404  -8.4032  -8.3430  -8.2297  -8.2177
    -8.2014  -8.1910  -8.0706  -8.0312  -7.9207  -7.6645  -7.6155  -7.5230
    -7.5140  -7.4681  -7.2921  -7.1118  -6.7475  -6.7339  -6.3333  -6.3031
    -6.2590  -6.2548  -5.9856  -4.9552  -1.7379  -1.1505  -1.0810  -1.0805
    -1.0572  -1.0192  -0.9315  -0.3325  -0.2347  -0.0887  -0.0839  -0.0357
    -0.0168   0.0525   0.0616   0.0659   0.0888   0.1023   0.1424   0.2122

          k =-0.0004-0.5761 0.0000 (108768 PWs)   bands (ev):

   -23.3891 -23.2293 -22.9883 -22.7679 -22.4377 -22.1775 -22.0933 -22.0132
   -21.8974 -21.6894 -21.3009 -21.2450 -21.1879 -20.9471 -20.6377 -20.5404
   -20.5180 -20.4998 -20.4795 -20.4272 -20.3570 -20.0784 -20.0425 -18.7168
   -16.6860 -14.8608 -14.5337 -14.3563 -14.3498 -14.2256 -13.8890 -13.6750
   -13.6308 -13.6192 -13.4907 -13.4153 -13.0954 -13.0276 -12.9099 -12.7677
   -12.6468 -12.5622 -11.9257 -11.8971 -11.5698 -11.4967 -11.4619 -11.2909
   -11.1532 -10.9343 -10.8834 -10.7981 -10.7471 -10.7187 -10.5073 -10.4692
   -10.4290 -10.3147 -10.3051 -10.1809 -10.1067 -10.0560  -9.9811  -9.8824
    -9.7468  -9.4703  -9.3921  -9.3187  -9.2949  -9.2524  -9.2309  -9.1993
    -9.1953  -9.0994  -9.0631  -8.9022  -8.7944  -8.7394  -8.3348  -8.2712
    -8.1803  -8.0832  -8.0207  -7.9796  -7.9103  -7.8017  -7.6147  -7.0911
    -7.0307  -6.9631  -6.9464  -6.9186  -6.8763  -6.8634  -6.8181  -6.7857
    -6.5726  -6.2727  -5.9156  -5.0193  -1.6548  -1.0659  -1.0182  -0.9176
    -0.8550  -0.8004  -0.7948  -0.7712  -0.6964  -0.4406  -0.2712  -0.2109
    -0.2097  -0.1726  -0.1297   0.0348   0.0661   0.6094   0.6257   0.7026

          k = 0.4983-0.2877 0.0000 (108768 PWs)   bands (ev):

   -23.4168 -23.1492 -23.0118 -22.8276 -22.4268 -22.1790 -22.0803 -22.0080
   -21.9105 -21.5658 -21.3646 -21.2867 -21.2142 -20.9799 -20.5867 -20.5322
   -20.4893 -20.4847 -20.4738 -20.4393 -20.4149 -20.0977 -19.9946 -18.7296
   -16.6830 -14.8841 -14.4206 -14.3797 -14.3674 -14.2375 -13.8591 -13.7367
   -13.7318 -13.5827 -13.4937 -13.4867 -13.0152 -12.9725 -12.8772 -12.7298
   -12.7198 -12.4445 -12.0669 -11.8864 -11.5874 -11.4998 -11.3930 -11.3596
   -11.0630 -10.9668 -10.8936 -10.8452 -10.8105 -10.6754 -10.4894 -10.4302
   -10.4226 -10.3521 -10.3101 -10.2285 -10.0677 -10.0554  -9.9988  -9.9747
    -9.5381  -9.4647  -9.3803  -9.3250  -9.2572  -9.2386  -9.2223  -9.1767
    -9.1498  -9.1316  -9.0029  -8.9628  -8.9070  -8.6903  -8.6010  -8.2201
    -8.1727  -8.0621  -8.0030  -7.9977  -7.9144  -7.7437  -7.5819  -7.0984
    -7.0270  -6.9611  -6.9193  -6.9081  -6.8805  -6.8367  -6.8330  -6.7946
    -6.4852  -6.3795  -5.9651  -4.9840  -1.6591  -1.0560  -1.0474  -0.9078
    -0.8682  -0.8010  -0.7841  -0.7546  -0.7139  -0.3533  -0.2648  -0.2570
    -0.1986  -0.1898  -0.1566   0.0242   0.0835   0.6040   0.6269   0.7501

     the Fermi energy is    -4.9947 ev

!    total energy              =    -983.49766440 Ry

     total all-electron energy =     -3944.406650 Ry
     estimated scf accuracy    <          1.8E-15 Ry
     smearing contrib. (-TS)   =      -0.00250678 Ry
     internal energy E=F+TS    =    -983.49515762 Ry

     The total energy is F=E-TS. E is the sum of the following terms:
     one-electron contribution =   -6146.41788404 Ry
     hartree contribution      =    3103.94240433 Ry
     xc contribution           =    -219.12040697 Ry
     ewald contribution        =    2604.97708390 Ry
     one-center paw contrib.   =    -326.87635484 Ry

     convergence has been achieved in  10 iterations

     negative rho (up, down):  1.594E-02 0.000E+00

     Forces acting on atoms (cartesian axes, Ry/au):

     atom    1 type  1   force =    -0.00001315   -0.00000711    0.00000000
     atom    2 type  1   force =     0.00000739   -0.00000398    0.00000000
     atom    3 type  1   force =    -0.00000009    0.00001112    0.00000000
     atom    4 type  1   force =     0.00000307    0.00000474    0.00000000
     atom    5 type  1   force =    -0.00000391    0.00000226    0.00000000
     atom    6 type  1   force =    -0.00001207   -0.00000586    0.00000000
     atom    7 type  1   force =    -0.00000637   -0.00000016    0.00000000
     atom    8 type  1   force =     0.00000009    0.00000461    0.00000000
     atom    9 type  1   force =    -0.00000444    0.00000256    0.00000000
     atom   10 type  1   force =    -0.00000257   -0.00000503    0.00000000
     atom   11 type  1   force =     0.00000447   -0.00000419    0.00000000
     atom   12 type  1   force =    -0.00001106    0.00000187    0.00000000
     atom   13 type  3   force =    -0.00000010    0.00000006    0.00000000
     atom   14 type  1   force =    -0.00000395   -0.00000239    0.00000000
     atom   15 type  1   force =    -0.00000967   -0.00000548    0.00000000
     atom   16 type  1   force =     0.00001757   -0.00000550    0.00000000
     atom   17 type  1   force =    -0.00000441    0.00000254    0.00000000
     atom   18 type  1   force =    -0.00000715    0.00000864    0.00000000
     atom   19 type  1   force =    -0.00000305    0.00000560    0.00000000
     atom   20 type  1   force =     0.00000714   -0.00000441    0.00000000
     atom   21 type  1   force =     0.00001632   -0.00000942    0.00000000
     atom   22 type  1   force =     0.00001355   -0.00001247    0.00000000
     atom   23 type  1   force =     0.00000586   -0.00000178    0.00000000
     atom   24 type  1   force =    -0.00000096    0.00001338    0.00000000
     atom   25 type  1   force =    -0.00000042    0.00001494    0.00000000
     atom   26 type  2   force =     0.00001456   -0.00000112    0.00000000
     atom   27 type  2   force =     0.00000722    0.00001479    0.00000000
     atom   28 type  2   force =    -0.00000942    0.00000242    0.00000000
     atom   29 type  2   force =    -0.00000824   -0.00000391    0.00000000
     atom   30 type  2   force =    -0.00000145    0.00000084    0.00000000
     atom   31 type  2   force =     0.00001010    0.00001053    0.00000000
     atom   32 type  2   force =     0.00001145   -0.00000426    0.00000000
     atom   33 type  3   force =    -0.00000583   -0.00000107    0.00000000
     atom   34 type  2   force =     0.00000418   -0.00000241    0.00000000
     atom   35 type  2   force =    -0.00000074    0.00000909    0.00000000
     atom   36 type  2   force =     0.00000766    0.00000767    0.00000000
     atom   37 type  2   force =     0.00000443   -0.00000193    0.00000000
     atom   38 type  2   force =     0.00000419   -0.00000242    0.00000000
     atom   39 type  3   force =    -0.00000199    0.00000558    0.00000000
     atom   40 type  2   force =    -0.00000680    0.00000695    0.00000000
     atom   41 type  2   force =    -0.00001151   -0.00000150    0.00000000
     atom   42 type  2   force =    -0.00000896    0.00000517    0.00000000
     atom   43 type  2   force =     0.00000389   -0.00000287    0.00000000
     atom   44 type  2   force =     0.00000941   -0.00000779    0.00000000
     atom   45 type  2   force =    -0.00000920   -0.00001364    0.00000000
     atom   46 type  2   force =    -0.00000198    0.00000114    0.00000000
     atom   47 type  2   force =    -0.00000445    0.00001072    0.00000000
     atom   48 type  2   force =    -0.00000281   -0.00001047    0.00000000
     atom   49 type  2   force =    -0.00000407   -0.00001401    0.00000000
     atom   50 type  2   force =     0.00000825   -0.00001205    0.00000000

     Total force =     0.000075     Total SCF correction =     0.000000


     Computing stress (Cartesian axis) and pressure


     negative rho (up, down):  1.594E-02 0.000E+00
          total   stress  (Ry/bohr**3)                   (kbar)     P=       -0.18
  -0.00000003   0.00000003   0.00000000           -0.00        0.00        0.00
   0.00000003   0.00000001   0.00000000            0.00        0.00        0.00
   0.00000000   0.00000000  -0.00000375            0.00        0.00       -0.55

     Message from routine bfgs:
     history already reset at previous step: exiting
     Energy error            =      2.7E-09 Ry
     Gradient error          =      1.8E-05 Ry/Bohr
     Cell gradient error     =      4.7E-03 kbar

     bfgs converged in  16 scf cycles and  15 bfgs steps
     (criteria: energy <  1.0E-04 Ry, force <  1.9E-10Ry/Bohr, cell <  5.0E-01kbar)

     End of BFGS Geometry Optimization

     Final enthalpy           =    -983.4976644049 Ry

     File ./TMP_DIR/hBN.bfgs deleted, as requested
Begin final coordinates
     new unit-cell volume =  13935.12223 a.u.^3 (  2064.97207 Ang^3 )
     density =      0.49668 g/cm^3

CELL_PARAMETERS (alat= 23.76463845)
   1.002941383  -0.000645921   0.000000000
  -0.502030075   0.868249756   0.000000000
   0.000000000   0.000000000   1.192775420

ATOMIC_POSITIONS (crystal)
B             0.0663070357        0.1328279546        0.5000000000
B             0.0673452444        0.3336180249        0.5000000000
B             0.0660603226        0.5336045685        0.5000000000
B             0.0663836155        0.7335443652        0.5000000000
B             0.0667246254        0.9332753746        0.5000000000
B             0.2663368429        0.1316294743        0.5000000000
B             0.2661010393        0.3295337115        0.5000000000
B             0.2667496195        0.5370323070        0.5000000000
B             0.2650122899        0.7349877101        0.5000000000
B             0.2664556348        0.9336163845        0.5000000000
B             0.4667770035        0.1336851140        0.5000000000
B             0.4660207333        0.3329833373        0.5000000000
C             0.4677375405        0.5322624595        0.5000000000
B             0.4629676930        0.7332503805        0.5000000000
B             0.4663954315        0.9339396774        0.5000000000
B             0.6666855380        0.1332663247        0.5000000000
B             0.6667096018        0.3332903982        0.5000000000
B             0.6670166627        0.5339792667        0.5000000000
B             0.6704662885        0.7338989607        0.5000000000
B             0.6663819751        0.9326547556        0.5000000000
B             0.8667752084        0.1332247916        0.5000000000
B             0.8667336753        0.3333144620        0.5000000000
B             0.8663148860        0.5332229965        0.5000000000
B             0.8683705257        0.7336631571        0.5000000000
B             0.8671720454        0.9336929643        0.5000000000
N             0.1332176748        0.0662826852        0.5000000000
N             0.1328648775        0.2654566651        0.5000000000
N             0.1331757264        0.4675371994        0.5000000000
N             0.1321214873        0.6669658176        0.5000000000
N             0.1331727555        0.8668272445        0.5000000000
N             0.3334823364        0.0663794890        0.5000000000
N             0.3330674179        0.2641540843        0.5000000000
C             0.3386813069        0.4683509902        0.5000000000
N             0.3306172630        0.6693827370        0.5000000000
N             0.3330341824        0.8678785127        0.5000000000
N             0.5334393655        0.0672899358        0.5000000000
N             0.5334882831        0.2672789227        0.5000000000
N             0.5327250849        0.4672749151        0.5000000000
C             0.5316490098        0.6613186931        0.5000000000
N             0.5324628006        0.8668242736        0.5000000000
N             0.7331792202        0.0662670919        0.5000000000
N             0.7333722439        0.2666277561        0.5000000000
N             0.7327210773        0.4665117169        0.5000000000
N             0.7358459157        0.6669325821        0.5000000000
N             0.7345433349        0.8671351225        0.5000000000
N             0.9333567592        0.0666432408        0.5000000000
N             0.9337329081        0.2668207798        0.5000000000
N             0.9327100642        0.4665606345        0.5000000000
N             0.9336205110        0.6665176636        0.5000000000
N             0.9337173148        0.8667823252        0.5000000000
End final coordinates



     Writing output data file ./TMP_DIR/hBN.save/

     Writing output data file ./TMP_DIR/hBN.save/
 
     init_run     :      4.24s CPU      4.47s WALL (       1 calls)
     electrons    :   4387.11s CPU   4467.49s WALL (      16 calls)
     update_pot   :     36.35s CPU     36.79s WALL (      15 calls)
     forces       :     29.45s CPU     30.16s WALL (      16 calls)
     stress       :    104.29s CPU    105.63s WALL (      16 calls)

     Called by init_run:
     wfcinit      :      1.84s CPU      1.97s WALL (       1 calls)
     potinit      :      0.69s CPU      0.72s WALL (       1 calls)
     hinit0       :      1.22s CPU      1.24s WALL (       1 calls)

     Called by electrons:
     c_bands      :   4238.28s CPU   4310.85s WALL (     234 calls)
     sum_band     :    118.78s CPU    122.09s WALL (     234 calls)
     v_of_rho     :      9.28s CPU      9.73s WALL (     240 calls)
     newd         :     10.39s CPU     11.39s WALL (     240 calls)
     PAW_pot      :      9.98s CPU     10.48s WALL (     255 calls)
     mix_rho      :      2.13s CPU      2.28s WALL (     234 calls)

     Called by c_bands:
     init_us_2    :      9.63s CPU      9.78s WALL (    1548 calls)
     ccgdiagg     :   3998.94s CPU   4066.45s WALL (     734 calls)
     wfcrot       :    232.83s CPU    237.47s WALL (     659 calls)

     Called by *cgdiagg:
     h_psi        :   2105.56s CPU   2140.04s WALL (  260467 calls)
     s_psi        :   1198.07s CPU   1214.34s WALL (  520275 calls)

     Called by h_psi:
     h_psi:calbec :    731.34s CPU    742.79s WALL (  260467 calls)
     vloc_psi     :    702.14s CPU    717.03s WALL (  260467 calls)
     add_vuspsi   :    662.62s CPU    671.36s WALL (  260467 calls)
     hs_1psi      :   2504.95s CPU   2543.59s WALL (  259808 calls)
     s_1psi       :   1245.19s CPU   1263.44s WALL (  259808 calls)

     General routines
     calbec       :   1384.08s CPU   1407.30s WALL (  521262 calls)
     fft          :      7.64s CPU      7.87s WALL (    3065 calls)
     ffts         :      0.56s CPU      0.58s WALL (     234 calls)
     fftw         :    706.93s CPU    721.83s WALL (  762496 calls)
     davcio       :      0.00s CPU      0.01s WALL (       3 calls)
 
     Parallel routines
 
     PWSCF        :      1h16m CPU      1h17m WALL

 
   This run was terminated on:  15:25:48  12Oct2022            

=------------------------------------------------------------------------------=
   JOB DONE.
=------------------------------------------------------------------------------=
