
     Program PWSCF v.6.8 starts on 14Nov2022 at 18:37:59 

     This program is part of the open-source Quantum ESPRESSO suite
     for quantum simulation of materials; please cite
         "P. Giannozzi et al., J. Phys.:Condens. Matter 21 395502 (2009);
         "P. Giannozzi et al., J. Phys.:Condens. Matter 29 465901 (2017);
         "P. Giannozzi et al., J. Chem. Phys. 152 154105 (2020);
          URL http://www.quantum-espresso.org", 
     in publications or presentations arising from this work. More details at
     http://www.quantum-espresso.org/quote

     Parallel version (MPI & OpenMP), running on      64 processor cores
     Number of MPI processes:                64
     Threads/MPI process:                     1

     MPI processes distributed on     2 nodes
     R & G space division:  proc/nbgrp/npool/nimage =      64
     125999 MiB available memory on the printing compute node when the environment starts
 
     Waiting for input...
     Reading input from standard input
Warning: card &IONS ignored
Warning: card 	ION_DYNAMICS="BFGS" ignored
Warning: card / ignored

     Current dimensions of program PWSCF are:
     Max number of different atomic species (ntypx) = 10
     Max number of k-points (npk) =  40000
     Max angular momentum in pseudopotentials (lmaxx) =  4

     Atomic positions and unit cell read from directory:
     ./TMP_DIR/hBN.save/
     Atomic positions from file used, from input discarded
 
     file N.pbe-n-kjpaw_psl.1.0.0.UPF: wavefunction(s)  2S renormalized
     file C.pbe-n-kjpaw_psl.1.0.0.UPF: wavefunction(s)  2S 2P renormalized
     Message from routine setup:
     using ibrav=0 with symmetry is DISCOURAGED, use correct ibrav instead

     Subspace diagonalization in iterative solution of the eigenvalue problem:
     one sub-group per band group will be used
     scalapack distributed-memory algorithm (size of sub-group:  8*  8 procs)

 
     Parallelization info
     --------------------
     sticks:   dense  smooth     PW     G-vecs:    dense   smooth      PW
     Min         146     146     39                13668    13668    1887
     Max         147     147     40                13677    13677    1892
     Sum        9383    9383   2523               874973   874973  120903
 
     Using Slab Decomposition
 


     bravais-lattice index     =            0
     lattice parameter (alat)  =      23.7646  a.u.
     unit-cell volume          =   13934.9313 (a.u.)^3
     number of atoms/cell      =           50
     number of atomic types    =            3
     number of electrons       =       199.00
     number of Kohn-Sham states=          200
     kinetic-energy cutoff     =      60.0000  Ry
     charge density cutoff     =     240.0000  Ry
     Exchange-correlation= SLA  PW   PBX  PBC
                           (   1   4   3   4   0   0   0)

     celldm(1)=  23.764638  celldm(2)=   0.000000  celldm(3)=   0.000000
     celldm(4)=   0.000000  celldm(5)=   0.000000  celldm(6)=   0.000000

     crystal axes: (cart. coord. in units of alat)
               a(1) = (   1.002932  -0.000644   0.000000 )  
               a(2) = (  -0.502021   0.868245   0.000000 )  
               a(3) = (   0.000000   0.000000   1.192775 )  

     reciprocal axes: (cart. coord. in units 2 pi/alat)
               b(1) = (  0.997447  0.576725  0.000000 )  
               b(2) = (  0.000740  1.152177  0.000000 )  
               b(3) = (  0.000000  0.000000  0.838381 )  


     PseudoPot. # 1 for B  read from file:
     ./pseudo/B.pbe-n-kjpaw_psl.1.0.0.UPF
     MD5 check sum: 8c825a5969375aca5c2c6ad5945b3059
     Pseudo is Projector augmented-wave + core cor, Zval =  3.0
     Generated using &quot;atomic&quot; code by A. Dal Corso  v.6.3
     Shape of augmentation charge: PSQ
     Using radial grid of 1059 points,  4 beta functions with: 
                l(1) =   0
                l(2) =   0
                l(3) =   1
                l(4) =   1
     Q(r) pseudized with 0 coefficients 


     PseudoPot. # 2 for N  read from file:
     ./pseudo/N.pbe-n-kjpaw_psl.1.0.0.UPF
     MD5 check sum: 14c48229446f9f2d411169a3abcbc3fa
     Pseudo is Projector augmented-wave + core cor, Zval =  5.0
     Generated using &quot;atomic&quot; code by A. Dal Corso  v.6.3
     Shape of augmentation charge: PSQ
     Using radial grid of 1085 points,  4 beta functions with: 
                l(1) =   0
                l(2) =   0
                l(3) =   1
                l(4) =   1
     Q(r) pseudized with 0 coefficients 


     PseudoPot. # 3 for C  read from file:
     ./pseudo/C.pbe-n-kjpaw_psl.1.0.0.UPF
     MD5 check sum: 5f16ad9a65e90284d1d834d4ab3b0f7d
     Pseudo is Projector augmented-wave + core cor, Zval =  4.0
     Generated using &quot;atomic&quot; code by A. Dal Corso  v.6.3
     Shape of augmentation charge: PSQ
     Using radial grid of 1073 points,  4 beta functions with: 
                l(1) =   0
                l(2) =   0
                l(3) =   1
                l(4) =   1
     Q(r) pseudized with 0 coefficients 


     atomic species   valence    mass     pseudopotential
        B              3.00    10.81100     B ( 1.00)
        N              5.00    14.00670     N ( 1.00)
        C              4.00    12.01070     C ( 1.00)

      2 Sym. Ops. (no inversion) found



   Cartesian axes

     site n.     atom                  positions (alat units)
         1           B   tau(   1) = (  -0.0001810   0.1152847   0.5963877  )
         2           B   tau(   2) = (  -0.0999399   0.2896192   0.5963877  )
         3           B   tau(   3) = (  -0.2016273   0.4632575   0.5963877  )
         4           B   tau(   4) = (  -0.3016773   0.6368538   0.5963877  )
         5           B   tau(   5) = (  -0.4016041   0.8102690   0.5963877  )
         6           B   tau(   6) = (   0.2010371   0.1141148   0.5963877  )
         7           B   tau(   7) = (   0.1014488   0.2859449   0.5963877  )
         8           B   tau(   8) = (  -0.0020701   0.4661045   0.5963877  )
         9           B   tau(   9) = (  -0.1031913   0.6379795   0.5963877  )
        10           B   tau(  10) = (  -0.2014587   0.8104367   0.5963877  )
        11           B   tau(  11) = (   0.4010341   0.1157709   0.5963877  )
        12           B   tau(  12) = (   0.3002226   0.2888106   0.5963877  )
        13           C   tau(  13) = (   0.2019027   0.4618326   0.5963877  )
        14           B   tau(  14) = (   0.0962174   0.6363427   0.5963877  )
        15           B   tau(  15) = (  -0.0010949   0.8105882   0.5963877  )
        16           B   tau(  16) = (   0.6017397   0.1152780   0.5963877  )
        17           B   tau(  17) = (   0.5013462   0.2889481   0.5963877  )
        18           B   tau(  18) = (   0.4009042   0.4631953   0.5963877  )
        19           B   tau(  19) = (   0.3039997   0.6367718   0.5963877  )
        20           B   tau(  20) = (   0.2001239   0.8093427   0.5963877  )
        21           B   tau(  21) = (   0.8024366   0.1151127   0.5963877  )
        22           B   tau(  22) = (   0.7019456   0.2888390   0.5963877  )
        23           B   tau(  23) = (   0.6011667   0.4624091   0.5963877  )
        24           B   tau(  24) = (   0.5026030   0.6364400   0.5963877  )
        25           B   tau(  25) = (   0.4009815   0.8101154   0.5963877  )
        26           N   tau(  26) = (   0.1003335   0.0574640   0.5963877  )
        27           N   tau(  27) = (  -0.0000099   0.2303965   0.5963877  )
        28           N   tau(  28) = (  -0.1011477   0.4058514   0.5963877  )
        29           N   tau(  29) = (  -0.2023229   0.5790048   0.5963877  )
        30           N   tau(  30) = (  -0.3016028   0.7525330   0.5963877  )
        31           N   tau(  31) = (   0.3011371   0.0574196   0.5963877  )
        32           N   tau(  32) = (   0.2014337   0.2291357   0.5963877  )
        33           C   tau(  33) = (   0.1045525   0.4064256   0.5963877  )
        34           N   tau(  34) = (  -0.0044582   0.5809757   0.5963877  )
        35           N   tau(  35) = (  -0.1016831   0.7533173   0.5963877  )
        36           N   tau(  36) = (   0.5012238   0.0580809   0.5963877  )
        37           N   tau(  37) = (   0.4008737   0.2317196   0.5963877  )
        38           N   tau(  38) = (   0.2997060   0.4053656   0.5963877  )
        39           C   tau(  39) = (   0.2012119   0.5738439   0.5963877  )
        40           N   tau(  40) = (   0.0988598   0.7522730   0.5963877  )
        41           N   tau(  41) = (   0.7020625   0.0570632   0.5963877  )
        42           N   tau(  42) = (   0.6016705   0.2310255   0.5963877  )
        43           N   tau(  43) = (   0.5006717   0.4045741   0.5963877  )
        44           N   tau(  44) = (   0.4031901   0.5785864   0.5963877  )
        45           N   tau(  45) = (   0.3013771   0.7524117   0.5963877  )
        46           N   tau(  46) = (   0.9026382   0.0572610   0.5963877  )
        47           N   tau(  47) = (   0.8025223   0.2310639   0.5963877  )
        48           N   tau(  48) = (   0.7012223   0.4044868   0.5963877  )
        49           N   tau(  49) = (   0.6017523   0.5780980   0.5963877  )
        50           N   tau(  50) = (   0.5013128   0.7519773   0.5963877  )

     number of k points=     4  Methfessel-Paxton smearing, width (Ry)=  0.0100
                       cart. coord. in units 2pi/alat
        k(    1) = (   0.0000000   0.0000000   0.0000000), wk =   0.5000000
        k(    2) = (  -0.0003700  -0.5760884   0.0000000), wk =   0.5000000
        k(    3) = (  -0.4987233  -0.2883627   0.0000000), wk =   0.5000000
        k(    4) = (  -0.4990933  -0.8644511   0.0000000), wk =   0.5000000

     Dense  grid:   874973 G-vectors     FFT dimensions: ( 120, 120, 144)

     Estimated max dynamical RAM per process >      36.29 MB

     Estimated total dynamical RAM >       2.27 GB
 ----2D----2D----2D----2D----2D----2D----2D----2D----2D----2D----2D----2D
  The code is running with the 2D cutoff
  Please refer to:
  Sohier, T., Calandra, M., & Mauri, F. (2017), 
  Density functional perturbation theory for gated two-dimensional heterostructu
 res:
  Theoretical developments and application to flexural phonons in graphene.
  Physical Review B, 96(7), 75448. https://doi.org/10.1103/PhysRevB.96.075448
 ----2D----2D----2D----2D----2D----2D----2D----2D----2D----2D----2D----2D

     Check: negative core charge=   -0.000007

     The potential is recalculated from file :
     ./TMP_DIR/hBN.save/charge-density


     negative rho (up, down):  1.577E-02 0.000E+00
     Starting wfcs are  200 randomized atomic wfcs
     Checking if some PAW data can be deallocated... 

     Band Structure Calculation
     CG style diagonalization
     c_bands:  3 eigenvalues not converged
     c_bands:  8 eigenvalues not converged
     c_bands:  8 eigenvalues not converged
     c_bands:  8 eigenvalues not converged

     ethr =  1.00E-13,  avg # of iterations = 71.4

     total cpu time spent up to now is      859.8 secs

     End of band structure calculation

          k = 0.0000 0.0000 0.0000 (109459 PWs)   bands (ev):

   -23.4828 -23.0723 -22.7420 -22.7276 -22.6935 -22.5106 -22.4470 -21.6761
   -21.3969 -21.3709 -21.3595 -21.2144 -21.2128 -21.0318 -20.9005 -20.8975
   -20.8342 -20.5108 -20.4972 -20.1312 -20.1088 -20.0804 -20.0511 -18.7077
   -16.6654 -14.7367 -14.2701 -14.2536 -14.1960 -14.1516 -14.1145 -14.0053
   -13.9252 -13.8236 -13.8097 -13.6690 -13.5182 -12.4695 -12.3664 -12.3337
   -12.3105 -12.1008 -12.0737 -11.9604 -11.7771 -11.7364 -11.6645 -11.5834
   -11.4266 -11.0199 -10.7099 -10.6368 -10.5928 -10.5078 -10.4417 -10.3552
   -10.2020 -10.0703 -10.0601 -10.0500 -10.0262  -9.9106  -9.8910  -9.8732
    -9.8452  -9.8353  -9.8185  -9.8091  -9.8060  -9.7316  -9.5130  -9.4979
    -9.2553  -9.0006  -8.4690  -8.4404  -8.4032  -8.3429  -8.2297  -8.2176
    -8.2014  -8.1910  -8.0706  -8.0311  -7.9206  -7.6644  -7.6154  -7.5230
    -7.5140  -7.4681  -7.2921  -7.1118  -6.7474  -6.7339  -6.3333  -6.3031
    -6.2590  -6.2547  -5.9855  -4.9552  -1.7378  -1.1497  -1.0809  -1.0803
    -1.0571  -1.0191  -0.9314  -0.3320  -0.2335  -0.0886  -0.0838  -0.0355
    -0.0166   0.0534   0.0622   0.0667   0.0889   0.1030   0.1433   0.2133
     0.8822   0.8891   0.8904   0.9058   0.9120   0.9311   1.0419   1.1618
     1.1747   1.1941   1.2215   1.4063   1.5333   2.2028   2.3807   2.3885
     2.3887   2.4031   2.4129   2.4395   2.5157   2.5311   2.5370   2.5434
     2.5798   2.5888   3.0245   3.0414   3.0499   3.0770   3.0879   3.1656
     3.2111   3.2235   3.2575   3.4054   3.4147   3.5131   3.5878   3.6777
     3.6827   3.6891   3.6902   3.6964   4.1069   4.3389   4.5961   4.6493
     4.6614   4.6674   4.6715   4.7217   4.7803   4.8158   4.8224   4.8262
     4.8269   4.8332   4.8377   4.8476   4.8609   4.8622   4.8733   4.8779
     4.8882   4.8883   4.9276   4.9303   4.9419   4.9452   4.9966   5.0602
     5.0955   5.1215   5.3452   5.5141   5.6410   5.8171   5.9000   5.9428

          k =-0.0004-0.5761 0.0000 (109392 PWs)   bands (ev):

   -23.3891 -23.2294 -22.9883 -22.7679 -22.4377 -22.1775 -22.0933 -22.0132
   -21.8974 -21.6894 -21.3009 -21.2450 -21.1880 -20.9471 -20.6377 -20.5404
   -20.5180 -20.4998 -20.4795 -20.4272 -20.3570 -20.0784 -20.0425 -18.7168
   -16.6859 -14.8609 -14.5338 -14.3563 -14.3498 -14.2256 -13.8891 -13.6751
   -13.6308 -13.6192 -13.4907 -13.4153 -13.0954 -13.0276 -12.9099 -12.7677
   -12.6468 -12.5622 -11.9257 -11.8971 -11.5698 -11.4967 -11.4619 -11.2909
   -11.1531 -10.9342 -10.8834 -10.7981 -10.7472 -10.7186 -10.5072 -10.4692
   -10.4291 -10.3148 -10.3051 -10.1809 -10.1067 -10.0560  -9.9810  -9.8823
    -9.7468  -9.4703  -9.3920  -9.3188  -9.2949  -9.2523  -9.2309  -9.1993
    -9.1952  -9.0994  -9.0630  -8.9023  -8.7944  -8.7394  -8.3347  -8.2711
    -8.1803  -8.0832  -8.0207  -7.9796  -7.9103  -7.8017  -7.6146  -7.0911
    -7.0306  -6.9631  -6.9463  -6.9186  -6.8763  -6.8633  -6.8180  -6.7857
    -6.5725  -6.2727  -5.9156  -5.0193  -1.6547  -1.0658  -1.0181  -0.9175
    -0.8542  -0.7995  -0.7947  -0.7710  -0.6962  -0.4404  -0.2711  -0.2101
    -0.2096  -0.1717  -0.1295   0.0363   0.0677   0.6108   0.6270   0.7029
     0.7746   0.8555   0.9088   1.0008   1.0104   1.0363   1.0444   1.4714
     1.5007   1.5382   1.5783   1.5871   1.5909   1.6082   1.6165   1.8040
     1.8412   2.1073   2.1330   2.4362   2.4962   2.7148   2.7359   2.8015
     2.8212   2.8756   2.9047   2.9701   3.0231   3.0319   3.0797   3.1802
     3.2843   3.3081   3.3167   3.3340   3.3550   3.5592   3.7412   3.7738
     3.9119   3.9461   3.9550   3.9760   4.2467   4.3050   4.3571   4.4057
     4.5227   4.5477   4.5688   4.5969   4.6282   4.6765   4.6859   4.7690
     4.8244   4.8692   4.8866   4.9136   4.9298   4.9409   4.9780   5.0271
     5.1786   5.2079   5.2374   5.2893   5.3252   5.3360   5.3594   5.4410
     5.5208   5.5648   5.5880   5.6028   5.6048   5.6158   5.6178   5.6566

          k =-0.4987-0.2884 0.0000 (109392 PWs)   bands (ev):

   -23.3891 -23.2294 -22.9883 -22.7679 -22.4377 -22.1775 -22.0933 -22.0132
   -21.8974 -21.6894 -21.3009 -21.2450 -21.1880 -20.9471 -20.6377 -20.5404
   -20.5180 -20.4998 -20.4795 -20.4272 -20.3570 -20.0784 -20.0425 -18.7168
   -16.6859 -14.8609 -14.5338 -14.3563 -14.3498 -14.2256 -13.8891 -13.6751
   -13.6308 -13.6192 -13.4907 -13.4153 -13.0954 -13.0276 -12.9099 -12.7677
   -12.6468 -12.5622 -11.9257 -11.8971 -11.5698 -11.4967 -11.4619 -11.2909
   -11.1531 -10.9342 -10.8834 -10.7981 -10.7472 -10.7186 -10.5072 -10.4692
   -10.4291 -10.3148 -10.3051 -10.1809 -10.1067 -10.0560  -9.9810  -9.8823
    -9.7468  -9.4703  -9.3920  -9.3188  -9.2949  -9.2523  -9.2309  -9.1993
    -9.1952  -9.0994  -9.0630  -8.9023  -8.7944  -8.7394  -8.3347  -8.2711
    -8.1803  -8.0832  -8.0207  -7.9796  -7.9103  -7.8017  -7.6146  -7.0911
    -7.0306  -6.9631  -6.9463  -6.9186  -6.8763  -6.8633  -6.8180  -6.7857
    -6.5725  -6.2727  -5.9156  -5.0193  -1.6547  -1.0658  -1.0181  -0.9175
    -0.8542  -0.7995  -0.7947  -0.7710  -0.6962  -0.4404  -0.2711  -0.2101
    -0.2096  -0.1717  -0.1295   0.0363   0.0677   0.6108   0.6270   0.7029
     0.7746   0.8555   0.9088   1.0008   1.0104   1.0363   1.0444   1.4714
     1.5007   1.5382   1.5783   1.5871   1.5909   1.6082   1.6165   1.8040
     1.8412   2.1073   2.1330   2.4362   2.4962   2.7148   2.7359   2.8015
     2.8212   2.8756   2.9047   2.9701   3.0231   3.0319   3.0797   3.1802
     3.2843   3.3081   3.3167   3.3340   3.3550   3.5592   3.7412   3.7738
     3.9119   3.9461   3.9550   3.9760   4.2467   4.3050   4.3571   4.4057
     4.5227   4.5477   4.5688   4.5969   4.6282   4.6765   4.6859   4.7690
     4.8244   4.8692   4.8866   4.9136   4.9298   4.9409   4.9780   5.0271
     5.1786   5.2079   5.2374   5.2893   5.3252   5.3360   5.3594   5.4410
     5.5208   5.5648   5.5880   5.6028   5.6048   5.6158   5.6178   5.6566

          k =-0.4991-0.8645 0.0000 (109368 PWs)   bands (ev):

   -23.4168 -23.1493 -23.0119 -22.8276 -22.4268 -22.1790 -22.0803 -22.0081
   -21.9106 -21.5658 -21.3647 -21.2867 -21.2143 -20.9799 -20.5867 -20.5321
   -20.4893 -20.4846 -20.4737 -20.4393 -20.4149 -20.0977 -19.9946 -18.7295
   -16.6830 -14.8842 -14.4206 -14.3798 -14.3675 -14.2376 -13.8592 -13.7367
   -13.7318 -13.5827 -13.4938 -13.4867 -13.0152 -12.9725 -12.8772 -12.7299
   -12.7198 -12.4445 -12.0669 -11.8864 -11.5875 -11.4999 -11.3930 -11.3596
   -11.0630 -10.9668 -10.8936 -10.8452 -10.8105 -10.6754 -10.4894 -10.4301
   -10.4225 -10.3521 -10.3101 -10.2285 -10.0676 -10.0553  -9.9988  -9.9748
    -9.5381  -9.4647  -9.3802  -9.3251  -9.2573  -9.2385  -9.2223  -9.1767
    -9.1497  -9.1316  -9.0028  -8.9628  -8.9070  -8.6903  -8.6009  -8.2201
    -8.1727  -8.0621  -8.0030  -7.9975  -7.9143  -7.7437  -7.5819  -7.0983
    -7.0269  -6.9611  -6.9192  -6.9080  -6.8805  -6.8366  -6.8330  -6.7945
    -6.4852  -6.3795  -5.9651  -4.9839  -1.6589  -1.0558  -1.0473  -0.9077
    -0.8673  -0.8009  -0.7833  -0.7545  -0.7138  -0.3532  -0.2646  -0.2568
    -0.1978  -0.1888  -0.1565   0.0259   0.0848   0.6048   0.6283   0.6915
     0.7503   0.7764   1.0013   1.0134   1.0414   1.0421   1.0636   1.4643
     1.4903   1.5353   1.5665   1.5678   1.5973   1.6110   1.6394   1.7178
     1.8768   2.1164   2.1270   2.4224   2.5081   2.7210   2.7216   2.7788
     2.8513   2.9022   2.9219   2.9941   3.0178   3.0249   3.0437   3.1710
     3.2863   3.3159   3.3238   3.3390   3.3461   3.6368   3.7630   3.8599
     3.9355   3.9497   3.9531   3.9549   3.9747   4.3583   4.3762   4.4816
     4.5396   4.5565   4.5718   4.5953   4.6195   4.6373   4.7173   4.7374
     4.7648   4.8660   4.8806   4.9194   4.9225   4.9364   4.9949   4.9959
     5.1408   5.1892   5.2579   5.3062   5.3127   5.3296   5.3518   5.4509
     5.5181   5.5561   5.5862   5.5866   5.5893   5.5976   5.6200   5.6378

     the Fermi energy is    -4.9946 ev
     (compare with:    -4.9946 eV, computed in scf)

     Writing output data file ./TMP_DIR/hBN.save/
 
     init_run     :      0.98s CPU      1.33s WALL (       1 calls)
     electrons    :    850.52s CPU    857.65s WALL (       1 calls)

     Called by init_run:
     wfcinit      :      0.00s CPU      0.01s WALL (       1 calls)
     potinit      :      0.08s CPU      0.34s WALL (       1 calls)
     hinit0       :      0.58s CPU      0.58s WALL (       1 calls)

     Called by electrons:
     c_bands      :    850.52s CPU    857.65s WALL (       1 calls)
     v_of_rho     :      0.03s CPU      0.04s WALL (       1 calls)
     newd         :      0.03s CPU      0.09s WALL (       1 calls)
     PAW_pot      :      0.04s CPU      0.04s WALL (       1 calls)

     Called by c_bands:
     init_us_2    :      0.02s CPU      0.03s WALL (       4 calls)
     ccgdiagg     :    837.52s CPU    844.29s WALL (      24 calls)
     wfcrot       :     12.65s CPU     12.88s WALL (      24 calls)

     Called by *cgdiagg:
     h_psi        :    383.37s CPU    386.51s WALL (   51285 calls)
     s_psi        :    246.90s CPU    249.03s WALL (  102546 calls)

     Called by h_psi:
     h_psi:calbec :    146.54s CPU    147.69s WALL (   51285 calls)
     vloc_psi     :    108.75s CPU    109.90s WALL (   51285 calls)
     add_vuspsi   :    126.63s CPU    127.61s WALL (   51285 calls)
     hs_1psi      :    497.20s CPU    500.97s WALL (   51261 calls)
     s_1psi       :    254.82s CPU    256.91s WALL (   51261 calls)

     General routines
     calbec       :    275.94s CPU    278.37s WALL (  102546 calls)
     fft          :      0.02s CPU      0.03s WALL (      12 calls)
     fftw         :     95.89s CPU     96.90s WALL (  112122 calls)
     davcio       :      0.00s CPU      0.24s WALL (       8 calls)
 
     Parallel routines
 
     PWSCF        :  14m13.42s CPU  14m23.57s WALL

 
   This run was terminated on:  18:52:22  14Nov2022            

=------------------------------------------------------------------------------=
   JOB DONE.
=------------------------------------------------------------------------------=
