
     Program PWSCF v.6.8 starts on 15Nov2022 at  0:18:40 

     This program is part of the open-source Quantum ESPRESSO suite
     for quantum simulation of materials; please cite
         "P. Giannozzi et al., J. Phys.:Condens. Matter 21 395502 (2009);
         "P. Giannozzi et al., J. Phys.:Condens. Matter 29 465901 (2017);
         "P. Giannozzi et al., J. Chem. Phys. 152 154105 (2020);
          URL http://www.quantum-espresso.org", 
     in publications or presentations arising from this work. More details at
     http://www.quantum-espresso.org/quote

     Parallel version (MPI & OpenMP), running on      64 processor cores
     Number of MPI processes:                64
     Threads/MPI process:                     1

     MPI processes distributed on     2 nodes
     R & G space division:  proc/nbgrp/npool/nimage =      64
     168099 MiB available memory on the printing compute node when the environment starts
 
     Waiting for input...
     Reading input from standard input
Warning: card &IONS ignored
Warning: card 	ION_DYNAMICS="BFGS" ignored
Warning: card / ignored

     Current dimensions of program PWSCF are:
     Max number of different atomic species (ntypx) = 10
     Max number of k-points (npk) =  40000
     Max angular momentum in pseudopotentials (lmaxx) =  4

     Atomic positions and unit cell read from directory:
     ./TMP_DIR/hBN.save/
     Atomic positions from file used, from input discarded
 
     file N.pbe-n-kjpaw_psl.1.0.0.UPF: wavefunction(s)  2S renormalized
     file C.pbe-n-kjpaw_psl.1.0.0.UPF: wavefunction(s)  2S 2P renormalized
     Message from routine setup:
     using ibrav=0 with symmetry is DISCOURAGED, use correct ibrav instead

     Subspace diagonalization in iterative solution of the eigenvalue problem:
     one sub-group per band group will be used
     scalapack distributed-memory algorithm (size of sub-group:  8*  8 procs)

 
     Parallelization info
     --------------------
     sticks:   dense  smooth     PW     G-vecs:    dense   smooth      PW
     Min         146     146     38                13668    13668    1822
     Max         147     147     39                13677    13677    1826
     Sum        9383    9383   2451               874973   874973  116781
 
     Using Slab Decomposition
 


     bravais-lattice index     =            0
     lattice parameter (alat)  =      23.7646  a.u.
     unit-cell volume          =   13934.9313 (a.u.)^3
     number of atoms/cell      =           50
     number of atomic types    =            3
     number of electrons       =       199.00
     number of Kohn-Sham states=          200
     kinetic-energy cutoff     =      60.0000  Ry
     charge density cutoff     =     240.0000  Ry
     Exchange-correlation= SLA  PW   PBX  PBC
                           (   1   4   3   4   0   0   0)

     celldm(1)=  23.764638  celldm(2)=   0.000000  celldm(3)=   0.000000
     celldm(4)=   0.000000  celldm(5)=   0.000000  celldm(6)=   0.000000

     crystal axes: (cart. coord. in units of alat)
               a(1) = (   1.002932  -0.000644   0.000000 )  
               a(2) = (  -0.502021   0.868245   0.000000 )  
               a(3) = (   0.000000   0.000000   1.192775 )  

     reciprocal axes: (cart. coord. in units 2 pi/alat)
               b(1) = (  0.997447  0.576725  0.000000 )  
               b(2) = (  0.000740  1.152177  0.000000 )  
               b(3) = (  0.000000  0.000000  0.838381 )  


     PseudoPot. # 1 for B  read from file:
     ./pseudo/B.pbe-n-kjpaw_psl.1.0.0.UPF
     MD5 check sum: 8c825a5969375aca5c2c6ad5945b3059
     Pseudo is Projector augmented-wave + core cor, Zval =  3.0
     Generated using &quot;atomic&quot; code by A. Dal Corso  v.6.3
     Shape of augmentation charge: PSQ
     Using radial grid of 1059 points,  4 beta functions with: 
                l(1) =   0
                l(2) =   0
                l(3) =   1
                l(4) =   1
     Q(r) pseudized with 0 coefficients 


     PseudoPot. # 2 for N  read from file:
     ./pseudo/N.pbe-n-kjpaw_psl.1.0.0.UPF
     MD5 check sum: 14c48229446f9f2d411169a3abcbc3fa
     Pseudo is Projector augmented-wave + core cor, Zval =  5.0
     Generated using &quot;atomic&quot; code by A. Dal Corso  v.6.3
     Shape of augmentation charge: PSQ
     Using radial grid of 1085 points,  4 beta functions with: 
                l(1) =   0
                l(2) =   0
                l(3) =   1
                l(4) =   1
     Q(r) pseudized with 0 coefficients 


     PseudoPot. # 3 for C  read from file:
     ./pseudo/C.pbe-n-kjpaw_psl.1.0.0.UPF
     MD5 check sum: 5f16ad9a65e90284d1d834d4ab3b0f7d
     Pseudo is Projector augmented-wave + core cor, Zval =  4.0
     Generated using &quot;atomic&quot; code by A. Dal Corso  v.6.3
     Shape of augmentation charge: PSQ
     Using radial grid of 1073 points,  4 beta functions with: 
                l(1) =   0
                l(2) =   0
                l(3) =   1
                l(4) =   1
     Q(r) pseudized with 0 coefficients 


     atomic species   valence    mass     pseudopotential
        B              3.00    10.81100     B ( 1.00)
        N              5.00    14.00670     N ( 1.00)
        C              4.00    12.01070     C ( 1.00)

      2 Sym. Ops. (no inversion) found



   Cartesian axes

     site n.     atom                  positions (alat units)
         1           B   tau(   1) = (  -0.0001810   0.1152847   0.5963877  )
         2           B   tau(   2) = (  -0.0999399   0.2896192   0.5963877  )
         3           B   tau(   3) = (  -0.2016273   0.4632575   0.5963877  )
         4           B   tau(   4) = (  -0.3016773   0.6368538   0.5963877  )
         5           B   tau(   5) = (  -0.4016041   0.8102690   0.5963877  )
         6           B   tau(   6) = (   0.2010371   0.1141148   0.5963877  )
         7           B   tau(   7) = (   0.1014488   0.2859449   0.5963877  )
         8           B   tau(   8) = (  -0.0020701   0.4661045   0.5963877  )
         9           B   tau(   9) = (  -0.1031913   0.6379795   0.5963877  )
        10           B   tau(  10) = (  -0.2014587   0.8104367   0.5963877  )
        11           B   tau(  11) = (   0.4010341   0.1157709   0.5963877  )
        12           B   tau(  12) = (   0.3002226   0.2888106   0.5963877  )
        13           C   tau(  13) = (   0.2019027   0.4618326   0.5963877  )
        14           B   tau(  14) = (   0.0962174   0.6363427   0.5963877  )
        15           B   tau(  15) = (  -0.0010949   0.8105882   0.5963877  )
        16           B   tau(  16) = (   0.6017397   0.1152780   0.5963877  )
        17           B   tau(  17) = (   0.5013462   0.2889481   0.5963877  )
        18           B   tau(  18) = (   0.4009042   0.4631953   0.5963877  )
        19           B   tau(  19) = (   0.3039997   0.6367718   0.5963877  )
        20           B   tau(  20) = (   0.2001239   0.8093427   0.5963877  )
        21           B   tau(  21) = (   0.8024366   0.1151127   0.5963877  )
        22           B   tau(  22) = (   0.7019456   0.2888390   0.5963877  )
        23           B   tau(  23) = (   0.6011667   0.4624091   0.5963877  )
        24           B   tau(  24) = (   0.5026030   0.6364400   0.5963877  )
        25           B   tau(  25) = (   0.4009815   0.8101154   0.5963877  )
        26           N   tau(  26) = (   0.1003335   0.0574640   0.5963877  )
        27           N   tau(  27) = (  -0.0000099   0.2303965   0.5963877  )
        28           N   tau(  28) = (  -0.1011477   0.4058514   0.5963877  )
        29           N   tau(  29) = (  -0.2023229   0.5790048   0.5963877  )
        30           N   tau(  30) = (  -0.3016028   0.7525330   0.5963877  )
        31           N   tau(  31) = (   0.3011371   0.0574196   0.5963877  )
        32           N   tau(  32) = (   0.2014337   0.2291357   0.5963877  )
        33           C   tau(  33) = (   0.1045525   0.4064256   0.5963877  )
        34           N   tau(  34) = (  -0.0044582   0.5809757   0.5963877  )
        35           N   tau(  35) = (  -0.1016831   0.7533173   0.5963877  )
        36           N   tau(  36) = (   0.5012238   0.0580809   0.5963877  )
        37           N   tau(  37) = (   0.4008737   0.2317196   0.5963877  )
        38           N   tau(  38) = (   0.2997060   0.4053656   0.5963877  )
        39           C   tau(  39) = (   0.2012119   0.5738439   0.5963877  )
        40           N   tau(  40) = (   0.0988598   0.7522730   0.5963877  )
        41           N   tau(  41) = (   0.7020625   0.0570632   0.5963877  )
        42           N   tau(  42) = (   0.6016705   0.2310255   0.5963877  )
        43           N   tau(  43) = (   0.5006717   0.4045741   0.5963877  )
        44           N   tau(  44) = (   0.4031901   0.5785864   0.5963877  )
        45           N   tau(  45) = (   0.3013771   0.7524117   0.5963877  )
        46           N   tau(  46) = (   0.9026382   0.0572610   0.5963877  )
        47           N   tau(  47) = (   0.8025223   0.2310639   0.5963877  )
        48           N   tau(  48) = (   0.7012223   0.4044868   0.5963877  )
        49           N   tau(  49) = (   0.6017523   0.5780980   0.5963877  )
        50           N   tau(  50) = (   0.5013128   0.7519773   0.5963877  )

     number of k points=    31  Methfessel-Paxton smearing, width (Ry)=  0.0100
                       cart. coord. in units 2pi/alat
        k(    1) = (   0.0000000   0.0000000   0.0000000), wk =   0.0645161
        k(    2) = (   0.0498723   0.0288363   0.0000000), wk =   0.0645161
        k(    3) = (   0.0997447   0.0576725   0.0000000), wk =   0.0645161
        k(    4) = (   0.1496170   0.0865088   0.0000000), wk =   0.0645161
        k(    5) = (   0.1994893   0.1153451   0.0000000), wk =   0.0645161
        k(    6) = (   0.2493617   0.1441813   0.0000000), wk =   0.0645161
        k(    7) = (   0.2992340   0.1730176   0.0000000), wk =   0.0645161
        k(    8) = (   0.3491063   0.2018539   0.0000000), wk =   0.0645161
        k(    9) = (   0.3989787   0.2306901   0.0000000), wk =   0.0645161
        k(   10) = (   0.4488510   0.2595264   0.0000000), wk =   0.0645161
        k(   11) = (   0.4987233   0.2883627   0.0000000), wk =   0.0645161
        k(   12) = (   0.4821239   0.3171565   0.0000000), wk =   0.0645161
        k(   13) = (   0.4655244   0.3459503   0.0000000), wk =   0.0645161
        k(   14) = (   0.4489250   0.3747441   0.0000000), wk =   0.0645161
        k(   15) = (   0.4323255   0.4035379   0.0000000), wk =   0.0645161
        k(   16) = (   0.4157261   0.4323317   0.0000000), wk =   0.0645161
        k(   17) = (   0.3991267   0.4611255   0.0000000), wk =   0.0645161
        k(   18) = (   0.3825272   0.4899193   0.0000000), wk =   0.0645161
        k(   19) = (   0.3659278   0.5187131   0.0000000), wk =   0.0645161
        k(   20) = (   0.3493283   0.5475069   0.0000000), wk =   0.0645161
        k(   21) = (   0.3327289   0.5763007   0.0000000), wk =   0.0645161
        k(   22) = (   0.2994560   0.5186707   0.0000000), wk =   0.0645161
        k(   23) = (   0.2661831   0.4610406   0.0000000), wk =   0.0645161
        k(   24) = (   0.2329102   0.4034105   0.0000000), wk =   0.0645161
        k(   25) = (   0.1996373   0.3457804   0.0000000), wk =   0.0645161
        k(   26) = (   0.1663644   0.2881504   0.0000000), wk =   0.0645161
        k(   27) = (   0.1330916   0.2305203   0.0000000), wk =   0.0645161
        k(   28) = (   0.0998187   0.1728902   0.0000000), wk =   0.0645161
        k(   29) = (   0.0665458   0.1152601   0.0000000), wk =   0.0645161
        k(   30) = (   0.0332729   0.0576301   0.0000000), wk =   0.0645161
        k(   31) = (   0.0000000   0.0000000   0.0000000), wk =   0.0645161

     Dense  grid:   874973 G-vectors     FFT dimensions: ( 120, 120, 144)

     Estimated max dynamical RAM per process >      36.29 MB

     Estimated total dynamical RAM >       2.27 GB
 ----2D----2D----2D----2D----2D----2D----2D----2D----2D----2D----2D----2D
  The code is running with the 2D cutoff
  Please refer to:
  Sohier, T., Calandra, M., & Mauri, F. (2017), 
  Density functional perturbation theory for gated two-dimensional heterostructu
 res:
  Theoretical developments and application to flexural phonons in graphene.
  Physical Review B, 96(7), 75448. https://doi.org/10.1103/PhysRevB.96.075448
 ----2D----2D----2D----2D----2D----2D----2D----2D----2D----2D----2D----2D

     Check: negative core charge=   -0.000007

     The potential is recalculated from file :
     ./TMP_DIR/hBN.save/charge-density


     negative rho (up, down):  1.577E-02 0.000E+00
     Starting wfcs are  200 randomized atomic wfcs
     Checking if some PAW data can be deallocated... 

     Band Structure Calculation
     CG style diagonalization
     c_bands:  3 eigenvalues not converged
     c_bands:  3 eigenvalues not converged
     c_bands:  4 eigenvalues not converged
     c_bands:  6 eigenvalues not converged
     c_bands:  7 eigenvalues not converged
     c_bands:  6 eigenvalues not converged
     c_bands:  6 eigenvalues not converged
     c_bands:  5 eigenvalues not converged
     c_bands:  6 eigenvalues not converged
     c_bands:  6 eigenvalues not converged
     c_bands:  8 eigenvalues not converged
     c_bands:  8 eigenvalues not converged
     c_bands:  8 eigenvalues not converged
     c_bands:  8 eigenvalues not converged
     c_bands:  8 eigenvalues not converged
     c_bands:  6 eigenvalues not converged
     c_bands:  8 eigenvalues not converged
     c_bands:  8 eigenvalues not converged
     c_bands:  6 eigenvalues not converged
     c_bands:  9 eigenvalues not converged
     c_bands:  8 eigenvalues not converged
     c_bands: 12 eigenvalues not converged
     c_bands: 10 eigenvalues not converged
     c_bands:  9 eigenvalues not converged
     c_bands:  7 eigenvalues not converged
     c_bands:  9 eigenvalues not converged
     c_bands:  6 eigenvalues not converged
     c_bands:  7 eigenvalues not converged
     c_bands:  4 eigenvalues not converged
     c_bands:  3 eigenvalues not converged
     c_bands:  3 eigenvalues not converged

     ethr =  1.00E-13,  avg # of iterations = 71.5

     total cpu time spent up to now is     6489.5 secs

     End of band structure calculation

          k = 0.0000 0.0000 0.0000 (109459 PWs)   bands (ev):

   -23.4828 -23.0723 -22.7420 -22.7276 -22.6935 -22.5106 -22.4470 -21.6761
   -21.3969 -21.3709 -21.3595 -21.2144 -21.2128 -21.0318 -20.9005 -20.8975
   -20.8342 -20.5108 -20.4972 -20.1312 -20.1088 -20.0804 -20.0511 -18.7077
   -16.6654 -14.7367 -14.2701 -14.2536 -14.1960 -14.1516 -14.1145 -14.0053
   -13.9252 -13.8236 -13.8097 -13.6690 -13.5182 -12.4695 -12.3664 -12.3337
   -12.3105 -12.1008 -12.0737 -11.9604 -11.7771 -11.7364 -11.6645 -11.5834
   -11.4266 -11.0199 -10.7099 -10.6368 -10.5928 -10.5078 -10.4417 -10.3552
   -10.2020 -10.0703 -10.0601 -10.0500 -10.0262  -9.9106  -9.8910  -9.8732
    -9.8452  -9.8353  -9.8185  -9.8091  -9.8060  -9.7316  -9.5130  -9.4979
    -9.2553  -9.0006  -8.4690  -8.4404  -8.4032  -8.3429  -8.2297  -8.2176
    -8.2014  -8.1910  -8.0706  -8.0311  -7.9206  -7.6644  -7.6154  -7.5230
    -7.5140  -7.4681  -7.2921  -7.1118  -6.7474  -6.7339  -6.3333  -6.3031
    -6.2590  -6.2547  -5.9855  -4.9552  -1.7378  -1.1497  -1.0809  -1.0803
    -1.0571  -1.0191  -0.9314  -0.3320  -0.2335  -0.0886  -0.0838  -0.0355
    -0.0166   0.0534   0.0622   0.0667   0.0889   0.1030   0.1433   0.2133
     0.8822   0.8891   0.8904   0.9058   0.9120   0.9311   1.0419   1.1618
     1.1747   1.1941   1.2215   1.4063   1.5333   2.2028   2.3807   2.3885
     2.3887   2.4031   2.4129   2.4395   2.5157   2.5311   2.5370   2.5434
     2.5798   2.5888   3.0245   3.0414   3.0499   3.0770   3.0879   3.1656
     3.2111   3.2235   3.2575   3.4054   3.4147   3.5131   3.5878   3.6777
     3.6827   3.6891   3.6902   3.6964   4.1069   4.3389   4.5961   4.6493
     4.6614   4.6674   4.6715   4.7217   4.7803   4.8158   4.8224   4.8262
     4.8269   4.8332   4.8377   4.8476   4.8609   4.8622   4.8733   4.8779
     4.8882   4.8883   4.9276   4.9303   4.9419   4.9452   4.9966   5.0602
     5.0955   5.1215   5.3452   5.5141   5.6410   5.8171   5.9000   5.9429

          k = 0.0499 0.0288 0.0000 (109455 PWs)   bands (ev):

   -23.4813 -23.0751 -22.7778 -22.7111 -22.6765 -22.5082 -22.4363 -21.6829
   -21.4469 -21.3871 -21.3090 -21.2284 -21.1863 -21.0353 -20.9300 -20.8756
   -20.8184 -20.5112 -20.4921 -20.1395 -20.1110 -20.0792 -20.0506 -18.7080
   -16.6660 -14.7384 -14.2729 -14.2549 -14.1954 -14.1493 -14.1076 -14.0385
   -13.9195 -13.8603 -13.7816 -13.6377 -13.4747 -12.5232 -12.4111 -12.3633
   -12.2551 -12.1229 -12.0376 -11.9749 -11.8083 -11.7422 -11.6282 -11.5575
   -11.3922 -11.0174 -10.7621 -10.6577 -10.5627 -10.5284 -10.3973 -10.3203
   -10.2227 -10.1170 -10.0931 -10.0391 -10.0056  -9.9979  -9.9053  -9.8745
    -9.8559  -9.8268  -9.7962  -9.7863  -9.7704  -9.6889  -9.5278  -9.4748
    -9.2243  -8.9960  -8.4979  -8.4673  -8.4103  -8.3256  -8.3077  -8.2239
    -8.2191  -8.1276  -8.0544  -7.9863  -7.9174  -7.6928  -7.6165  -7.5654
    -7.5001  -7.4376  -7.2755  -7.0954  -6.7514  -6.7381  -6.3508  -6.3035
    -6.2730  -6.2433  -5.9839  -4.9571  -1.7346  -1.1464  -1.0792  -1.0729
    -1.0541  -1.0156  -0.9271  -0.3611  -0.2443  -0.1938  -0.1145  -0.0393
     0.0175   0.0275   0.0451   0.0748   0.1499   0.1628   0.1714   0.2757
     0.7948   0.8456   0.8656   0.9237   0.9574   0.9829   1.0254   1.1134
     1.1779   1.1834   1.2831   1.4179   1.5688   2.2056   2.2790   2.3341
     2.3409   2.3578   2.4019   2.4573   2.4727   2.5196   2.5494   2.5744
     2.7130   2.7392   3.0007   3.0230   3.0514   3.0638   3.0880   3.1654
     3.1891   3.2060   3.2732   3.4064   3.4262   3.4955   3.5393   3.5506
     3.6548   3.6901   3.8241   3.8495   4.1082   4.3418   4.5700   4.5779
     4.6246   4.6538   4.6641   4.6726   4.6891   4.7135   4.7192   4.7731
     4.8049   4.8168   4.8526   4.8667   4.8768   4.8820   4.9186   4.9222
     4.9326   4.9408   4.9720   5.0096   5.0251   5.0333   5.0449   5.0925
     5.1420   5.1441   5.3502   5.5170   5.6397   5.8066   5.8574   5.9124

          k = 0.0997 0.0577 0.0000 (109402 PWs)   bands (ev):

   -23.4770 -23.0836 -22.8207 -22.7121 -22.6402 -22.4963 -22.4086 -21.7028
   -21.5189 -21.4032 -21.2766 -21.2255 -21.1461 -21.0509 -20.9398 -20.8710
   -20.7800 -20.5092 -20.4809 -20.1586 -20.1225 -20.0755 -20.0496 -18.7086
   -16.6677 -14.7436 -14.2861 -14.2555 -14.1975 -14.1511 -14.1082 -14.0614
   -13.9425 -13.8893 -13.7301 -13.5704 -13.3687 -12.6354 -12.4731 -12.4318
   -12.2396 -12.1217 -12.0682 -11.9294 -11.8481 -11.7339 -11.5940 -11.4700
   -11.3105 -11.0099 -10.8540 -10.7167 -10.5355 -10.5215 -10.3144 -10.2864
   -10.2741 -10.1925 -10.1617 -10.0589 -10.0482  -9.9788  -9.9464  -9.8780
    -9.8475  -9.8392  -9.7964  -9.7412  -9.7206  -9.6094  -9.5218  -9.4358
    -9.1477  -8.9782  -8.5568  -8.5364  -8.4385  -8.4145  -8.2932  -8.2338
    -8.2243  -8.1130  -7.9853  -7.9079  -7.9038  -7.7538  -7.6196  -7.5967
    -7.5253  -7.3743  -7.2335  -7.0530  -6.7656  -6.7485  -6.3861  -6.3297
    -6.2785  -6.2380  -5.9789  -4.9628  -1.7256  -1.1366  -1.0735  -1.0567
    -1.0411  -1.0049  -0.9129  -0.4505  -0.2977  -0.2394  -0.1912  -0.1428
    -0.0215   0.0247   0.0897   0.1279   0.2225   0.2447   0.3089   0.3864
     0.6976   0.7924   0.8175   0.8599   0.9475   1.0207   1.0459   1.1268
     1.1838   1.1877   1.3272   1.4753   1.6452   2.1580   2.1806   2.2140
     2.2157   2.2918   2.3236   2.5173   2.5258   2.5612   2.5759   2.6664
     2.8890   2.9064   2.9520   2.9714   3.0028   3.0651   3.1048   3.1448
     3.1650   3.1650   3.3111   3.3520   3.4025   3.4266   3.4715   3.6194
     3.6612   3.6980   3.9897   4.0190   4.1119   4.3504   4.3626   4.4988
     4.5182   4.5647   4.5695   4.6037   4.6067   4.6798   4.7482   4.7659
     4.8306   4.8430   4.8561   4.8751   4.8782   4.8968   4.9103   4.9355
     4.9579   5.0222   5.0519   5.0739   5.0950   5.1033   5.2107   5.2169
     5.2523   5.3180   5.3728   5.5234   5.6333   5.7399   5.7798   5.7808

          k = 0.1496 0.0865 0.0000 (109394 PWs)   bands (ev):

   -23.4698 -23.0972 -22.8608 -22.7187 -22.6060 -22.4702 -22.3697 -21.7338
   -21.5918 -21.4247 -21.2701 -21.2226 -21.0984 -21.0682 -20.9189 -20.8722
   -20.7371 -20.5030 -20.4672 -20.1842 -20.1438 -20.0719 -20.0486 -18.7097
   -16.6703 -14.7527 -14.3073 -14.2754 -14.2196 -14.1445 -14.0991 -14.0649
   -13.9468 -13.9059 -13.6575 -13.4924 -13.2311 -12.7590 -12.5823 -12.4818
   -12.2905 -12.2056 -12.0595 -11.9041 -11.8046 -11.6972 -11.5681 -11.3528
   -11.2113 -10.9976 -10.9493 -10.7908 -10.5424 -10.4816 -10.4207 -10.3392
   -10.2035 -10.1985 -10.1774 -10.0945 -10.0713 -10.0307  -9.9087  -9.8918
    -9.8593  -9.8255  -9.7940  -9.7172  -9.6392  -9.5932  -9.4563  -9.3868
    -9.0659  -8.9277  -8.6267  -8.6261  -8.5230  -8.4840  -8.2665  -8.2398
    -8.2330  -8.1059  -7.9639  -7.8937  -7.8214  -7.7814  -7.6239  -7.6050
    -7.5548  -7.3092  -7.1785  -6.9976  -6.7917  -6.7618  -6.4303  -6.3729
    -6.2931  -6.2371  -5.9706  -4.9713  -1.7124  -1.1203  -1.0654  -1.0438
    -1.0085  -0.9873  -0.8859  -0.5665  -0.3685  -0.2892  -0.2452  -0.2143
    -0.0656  -0.0219   0.1581   0.2157   0.2990   0.3249   0.4600   0.5130
     0.6043   0.7154   0.7645   0.7939   0.8427   1.0779   1.0929   1.1616
     1.1992   1.2040   1.3720   1.5580   1.7290   2.0102   2.0245   2.0896
     2.2278   2.2479   2.2755   2.5468   2.5614   2.6117   2.6362   2.7878
     2.8086   2.8947   2.9813   3.0549   3.0660   3.0943   3.1104   3.1125
     3.1436   3.1595   3.2431   3.2835   3.3584   3.4252   3.5395   3.6750
     3.6897   3.7111   4.1166   4.1345   4.1810   4.1967   4.3341   4.3589
     4.3721   4.4708   4.5053   4.5447   4.5877   4.6986   4.7334   4.7989
     4.8122   4.8645   4.8761   4.8813   4.9006   4.9098   4.9412   4.9697
     5.0246   5.0670   5.0974   5.1579   5.1897   5.2106   5.2961   5.3097
     5.4222   5.4482   5.5350   5.5565   5.5971   5.6230   5.6435   5.6780

          k = 0.1995 0.1153 0.0000 (109365 PWs)   bands (ev):

   -23.4599 -23.1154 -22.8962 -22.7281 -22.5748 -22.4319 -22.3232 -21.7727
   -21.6635 -21.4517 -21.2697 -21.2346 -21.1098 -21.0190 -20.8802 -20.8689
   -20.6959 -20.4931 -20.4537 -20.2149 -20.1730 -20.0705 -20.0475 -18.7109
   -16.6734 -14.7659 -14.3460 -14.3185 -14.2269 -14.1184 -14.1114 -14.0445
   -13.9366 -13.8811 -13.5767 -13.4105 -13.0822 -12.8801 -12.7017 -12.5398
   -12.3719 -12.2900 -12.1281 -11.8295 -11.7470 -11.6358 -11.5270 -11.2322
   -11.1159 -11.0357 -10.9803 -10.8593 -10.6664 -10.4766 -10.4225 -10.4081
   -10.2294 -10.2290 -10.1710 -10.0976 -10.0765  -9.9873  -9.9356  -9.8876
    -9.8585  -9.8324  -9.7293  -9.7043  -9.5956  -9.5476  -9.3895  -9.3297
    -9.0161  -8.8262  -8.7245  -8.6994  -8.6310  -8.5413  -8.2601  -8.2498
    -8.2361  -8.0981  -8.0194  -7.8775  -7.8180  -7.7035  -7.6280  -7.6017
    -7.5383  -7.2450  -7.1182  -6.9402  -6.8276  -6.7778  -6.4817  -6.4258
    -6.3238  -6.2390  -5.9601  -4.9814  -1.6972  -1.0975  -1.0560  -1.0322
    -0.9697  -0.9568  -0.8444  -0.6767  -0.4344  -0.3626  -0.3438  -0.1995
    -0.1041  -0.0620   0.2199   0.3014   0.3814   0.4097   0.5019   0.5426
     0.6363   0.6488   0.7178   0.7582   0.7819   1.1024   1.1356   1.1692
     1.2267   1.2462   1.4474   1.6358   1.8038   1.8513   1.8719   1.9829
     2.2102   2.2361   2.2468   2.5658   2.5796   2.6439   2.6917   2.7149
     2.8327   2.9241   2.9600   3.0342   3.0463   3.0655   3.0959   3.1267
     3.1824   3.1910   3.2814   3.3024   3.4165   3.4191   3.6215   3.6943
     3.7296   3.7585   3.9443   4.1162   4.1798   4.2068   4.3305   4.3803
     4.3889   4.3986   4.4100   4.5263   4.5934   4.7165   4.7188   4.7952
     4.8388   4.8473   4.8732   4.8918   4.9443   4.9615   4.9956   5.0242
     5.0760   5.0990   5.1372   5.2677   5.3074   5.3187   5.3417   5.3797
     5.4281   5.4904   5.5027   5.5158   5.5510   5.5804   5.6201   5.6681

          k = 0.2494 0.1442 0.0000 (109372 PWs)   bands (ev):

   -23.4477 -23.1372 -22.9258 -22.7383 -22.5444 -22.3864 -22.2720 -21.8155
   -21.7330 -21.4863 -21.2741 -21.2486 -21.1302 -20.9672 -20.8599 -20.8231
   -20.6580 -20.4811 -20.4423 -20.2505 -20.2084 -20.0711 -20.0463 -18.7124
   -16.6767 -14.7832 -14.4058 -14.3379 -14.2445 -14.1329 -14.0823 -14.0057
   -13.9036 -13.8315 -13.4925 -13.3275 -13.0355 -12.9031 -12.8095 -12.6074
   -12.4644 -12.3673 -12.2146 -11.7700 -11.6753 -11.5744 -11.4571 -11.1687
   -11.0688 -11.0482 -10.9582 -10.9109 -10.8231 -10.4938 -10.4766 -10.3700
   -10.2997 -10.2555 -10.2192 -10.1220 -10.0334  -9.9683  -9.9269  -9.8863
    -9.8617  -9.7684  -9.7013  -9.6594  -9.5899  -9.4497  -9.3427  -9.2684
    -8.9856  -8.8227  -8.7856  -8.7374  -8.6988  -8.5969  -8.2826  -8.2748
    -8.2310  -8.1013  -8.0671  -7.8642  -7.8418  -7.6841  -7.6301  -7.5428
    -7.4596  -7.1820  -7.0565  -6.8887  -6.8703  -6.7960  -6.5397  -6.4873
    -6.3670  -6.2443  -5.9487  -4.9917  -1.6826  -1.0683  -1.0463  -1.0204
    -0.9442  -0.9036  -0.8112  -0.7424  -0.4936  -0.4376  -0.4341  -0.1752
    -0.1365  -0.0958   0.2491   0.3738   0.4274   0.4654   0.4702   0.4999
     0.5472   0.6949   0.7256   0.7913   0.8791   1.0964   1.1174   1.2367
     1.2559   1.3039   1.5384   1.6968   1.6976   1.7209   1.8597   1.8857
     2.1785   2.2030   2.2706   2.4691   2.5903   2.6054   2.7686   2.7768
     2.7990   2.9396   2.9938   2.9944   3.0142   3.0523   3.0757   3.0899
     3.1152   3.1808   3.4038   3.4087   3.4960   3.5299   3.7113   3.7132
     3.7535   3.7581   3.8283   4.0189   4.0473   4.1356   4.2846   4.3198
     4.4161   4.5092   4.5373   4.5726   4.6149   4.7237   4.7323   4.7996
     4.8330   4.8525   4.8819   4.9050   4.9714   5.0026   5.0732   5.1014
     5.1202   5.1255   5.1694   5.2386   5.2716   5.3436   5.3870   5.3891
     5.4436   5.4453   5.4812   5.5013   5.5041   5.5362   5.6276   5.6802

          k = 0.2992 0.1730 0.0000 (109338 PWs)   bands (ev):

   -23.4337 -23.1613 -22.9493 -22.7481 -22.5144 -22.3373 -22.2190 -21.8586
   -21.7985 -21.5300 -21.2849 -21.2524 -21.1481 -20.9441 -20.8173 -20.7651
   -20.6238 -20.4687 -20.4352 -20.2906 -20.2484 -20.0728 -20.0451 -18.7137
   -16.6797 -14.8035 -14.4563 -14.3505 -14.2720 -14.1585 -14.0356 -13.9518
   -13.8484 -13.7753 -13.4077 -13.2514 -13.1422 -12.9612 -12.7248 -12.6766
   -12.5539 -12.4348 -12.3013 -11.7293 -11.6071 -11.5046 -11.3739 -11.2266
   -11.0906 -11.0495 -10.9509 -10.9312 -10.8005 -10.5487 -10.5426 -10.3916
   -10.3148 -10.2768 -10.2172 -10.1429 -10.0886 -10.0018  -9.9236  -9.8399
    -9.8045  -9.7007  -9.6848  -9.5856  -9.5656  -9.3498  -9.3085  -9.2134
    -8.9672  -8.9163  -8.8607  -8.8409  -8.6978  -8.5383  -8.3573  -8.2926
    -8.2312  -8.1190  -8.0626  -7.8753  -7.8586  -7.7143  -7.6288  -7.4340
    -7.3611  -7.1209  -6.9958  -6.9160  -6.8490  -6.8152  -6.6037  -6.5572
    -6.4174  -6.2519  -5.9378  -5.0012  -1.6705  -1.0375  -1.0329  -1.0102
    -0.9202  -0.8910  -0.8094  -0.6916  -0.5398  -0.5261  -0.4996  -0.1631
    -0.1441  -0.1232   0.1983   0.3193   0.3607   0.4709   0.5208   0.5652
     0.5958   0.6708   0.7025   0.9397   0.9796   1.0730   1.1303   1.2914
     1.3121   1.3710   1.5477   1.5741   1.6241   1.7399   1.7952   1.8904
     2.1525   2.1747   2.2968   2.2989   2.6152   2.6293   2.7040   2.8675
     2.8831   2.9182   2.9474   2.9560   2.9800   3.0171   3.0496   3.0831
     3.1759   3.2085   3.3796   3.4636   3.5637   3.6945   3.7101   3.7540
     3.7833   3.7995   3.8586   3.9030   3.9332   4.1326   4.2048   4.2362
     4.4478   4.4917   4.6467   4.6685   4.7472   4.7631   4.7876   4.8123
     4.8392   4.8625   4.8817   4.9076   4.9835   5.0255   5.0892   5.1177
     5.1426   5.1708   5.1885   5.1976   5.2311   5.2645   5.2787   5.2962
     5.4188   5.4572   5.5008   5.5128   5.5707   5.6110   5.6314   5.6513

          k = 0.3491 0.2019 0.0000 (109347 PWs)   bands (ev):

   -23.4187 -23.1856 -22.9669 -22.7564 -22.4857 -22.2869 -22.1688 -21.9004
   -21.8552 -21.5803 -21.2940 -21.2508 -21.1637 -20.9412 -20.7573 -20.7046
   -20.5932 -20.4583 -20.4342 -20.3350 -20.2897 -20.0749 -20.0441 -18.7150
   -16.6823 -14.8248 -14.4929 -14.3581 -14.3000 -14.1845 -13.9829 -13.8864
   -13.7827 -13.7167 -13.3281 -13.2839 -13.1516 -13.0726 -12.7594 -12.6431
   -12.5944 -12.4564 -12.3709 -11.6928 -11.5606 -11.4293 -11.3357 -11.2776
   -11.2348 -11.0896 -10.8997 -10.8313 -10.7173 -10.6234 -10.6052 -10.4872
   -10.2934 -10.2720 -10.1919 -10.1594 -10.1545 -10.0531  -9.9423  -9.8051
    -9.7804  -9.6306  -9.6144  -9.5130  -9.5088  -9.2809  -9.2575  -9.1719
    -8.9969  -8.9814  -8.9390  -8.9255  -8.7542  -8.4600  -8.4217  -8.3065
    -8.2359  -8.1170  -8.0489  -7.9106  -7.8639  -7.7473  -7.6245  -7.3214
    -7.2570  -7.0630  -6.9601  -6.9383  -6.8336  -6.8249  -6.6730  -6.6346
    -6.4699  -6.2601  -5.9285  -5.0090  -1.6621  -1.0314  -1.0111  -0.9915
    -0.9325  -0.8828  -0.7592  -0.6265  -0.6090  -0.5746  -0.5251  -0.1837
    -0.1445  -0.1077   0.0901   0.2118   0.2592   0.5315   0.5742   0.6517
     0.6665   0.6901   0.6975   0.9734   1.0303   1.0929   1.2483   1.3321
     1.3896   1.4053   1.4328   1.4417   1.6806   1.7109   1.7702   1.8940
     2.1059   2.1340   2.1667   2.3318   2.6408   2.6434   2.6571   2.8933
     2.8982   2.9053   2.9210   2.9811   2.9869   3.0136   3.0179   3.0742
     3.1693   3.3392   3.3468   3.4072   3.4984   3.7172   3.7467   3.7891
     3.8186   3.8756   3.9036   3.9323   4.0062   4.1293   4.1443   4.1586
     4.4596   4.4957   4.6780   4.7031   4.7592   4.7980   4.8144   4.8395
     4.8817   4.9205   4.9439   4.9623   4.9772   4.9963   5.0272   5.1138
     5.1217   5.1594   5.1792   5.2014   5.2105   5.2304   5.2420   5.2954
     5.3451   5.4011   5.4939   5.5288   5.5672   5.6342   5.6867   5.7280

          k = 0.3990 0.2307 0.0000 (109352 PWs)   bands (ev):

   -23.4044 -23.2075 -22.9790 -22.7627 -22.4611 -22.2378 -22.1281 -21.9460
   -21.8898 -21.6311 -21.2987 -21.2482 -21.1763 -20.9435 -20.6985 -20.6433
   -20.5656 -20.4546 -20.4406 -20.3826 -20.3260 -20.0767 -20.0433 -18.7160
   -16.6843 -14.8435 -14.5167 -14.3611 -14.3236 -14.2062 -13.9345 -13.8109
   -13.7210 -13.6516 -13.3978 -13.2797 -13.1614 -13.0786 -12.8295 -12.7070
   -12.6070 -12.4829 -12.2828 -11.6630 -11.5285 -11.4906 -11.3916 -11.2990
   -11.2248 -11.0655 -10.8639 -10.7406 -10.7115 -10.6634 -10.6180 -10.5588
   -10.3052 -10.2902 -10.2084 -10.1713 -10.1606 -10.0751  -9.9618  -9.8342
    -9.7544  -9.5609  -9.5201  -9.4349  -9.4302  -9.2578  -9.2082  -9.1519
    -9.0572  -9.0401  -9.0013  -8.9759  -8.7866  -8.5715  -8.3414  -8.2987
    -8.2369  -8.1044  -8.0352  -7.9434  -7.8796  -7.7754  -7.6194  -7.2152
    -7.1524  -7.0101  -6.9971  -6.8886  -6.8491  -6.8205  -6.7452  -6.7150
    -6.5191  -6.2669  -5.9214  -5.0147  -1.6573  -1.0391  -1.0203  -0.9443
    -0.9344  -0.8503  -0.7434  -0.6857  -0.6298  -0.5636  -0.4519  -0.1984
    -0.1596  -0.0738  -0.0238   0.0830   0.1818   0.5825   0.6289   0.6444
     0.6996   0.7740   0.8051   0.9313   0.9805   1.2471   1.2663   1.2956
     1.3817   1.3866   1.4672   1.5094   1.6326   1.6859   1.7991   1.8758
     1.9372   2.1188   2.1456   2.3692   2.5810   2.6734   2.6876   2.8593
     2.8705   2.8755   2.9088   2.9659   3.0043   3.0757   3.0845   3.1121
     3.1624   3.2330   3.3340   3.4712   3.5239   3.5821   3.6278   3.8302
     3.8596   3.9233   4.0465   4.0593   4.0873   4.0973   4.1369   4.2233
     4.4404   4.5305   4.6529   4.7261   4.7272   4.7404   4.7884   4.8369
     4.8493   4.8960   4.9387   4.9851   5.0063   5.0278   5.0712   5.0769
     5.0787   5.1521   5.1694   5.1776   5.2105   5.2325   5.2641   5.3365
     5.4092   5.4589   5.4995   5.5776   5.5927   5.6209   5.6472   5.6740

          k = 0.4489 0.2595 0.0000 (109381 PWs)   bands (ev):

   -23.3934 -23.2234 -22.9860 -22.7666 -22.4439 -22.1961 -22.1026 -21.9912
   -21.8985 -21.6724 -21.3005 -21.2459 -21.1849 -20.9461 -20.6543 -20.5829
   -20.5385 -20.4720 -20.4550 -20.4205 -20.3495 -20.0780 -20.0427 -18.7166
   -16.6855 -14.8563 -14.5296 -14.3598 -14.3410 -14.2206 -13.9010 -13.7259
   -13.6802 -13.5798 -13.4998 -13.3455 -13.1306 -13.0350 -12.8868 -12.7520
   -12.6360 -12.5386 -12.1030 -11.7279 -11.5804 -11.5003 -11.4418 -11.2851
   -11.1836 -10.9933 -10.8252 -10.8236 -10.7156 -10.6848 -10.5892 -10.4997
   -10.3696 -10.3124 -10.2656 -10.1785 -10.1252 -10.0624  -9.9769  -9.8665
    -9.7476  -9.4994  -9.4332  -9.3556  -9.3513  -9.2407  -9.2280  -9.1739
    -9.1388  -9.0821  -9.0362  -8.9529  -8.7940  -8.6782  -8.3342  -8.2725
    -8.2053  -8.0901  -8.0247  -7.9690  -7.8998  -7.7947  -7.6158  -7.1285
    -7.0497  -7.0219  -6.9636  -6.8699  -6.8596  -6.8458  -6.8074  -6.7732
    -6.5572  -6.2713  -5.9171  -5.0181  -1.6552  -1.0583  -1.0189  -0.9234
    -0.8927  -0.8163  -0.7580  -0.7550  -0.6751  -0.4863  -0.3475  -0.2072
    -0.1687  -0.1483  -0.0598   0.0033   0.1148   0.6067   0.6288   0.6821
     0.7422   0.8843   0.8875   0.9185   0.9326   1.1338   1.1637   1.3983
     1.4531   1.4883   1.5393   1.5612   1.5636   1.6542   1.7648   1.8090
     1.8512   2.1101   2.1361   2.4093   2.5275   2.7013   2.7183   2.8216
     2.8368   2.8728   2.9046   2.9613   3.0067   3.0734   3.1083   3.1764
     3.1975   3.2220   3.2995   3.4391   3.4573   3.5604   3.6369   3.8615
     3.8759   3.9060   3.9963   4.0226   4.1846   4.2059   4.3365   4.3600
     4.4365   4.5042   4.5911   4.6439   4.7043   4.7541   4.7695   4.7941
     4.8131   4.8643   4.8736   4.9086   4.9533   4.9950   4.9959   5.0275
     5.1484   5.1955   5.2143   5.2482   5.2716   5.3574   5.3834   5.3949
     5.4301   5.4728   5.5106   5.5593   5.6164   5.6412   5.6665   5.6866

          k = 0.4987 0.2884 0.0000 (109392 PWs)   bands (ev):

   -23.3891 -23.2294 -22.9883 -22.7679 -22.4377 -22.1775 -22.0933 -22.0132
   -21.8974 -21.6894 -21.3009 -21.2450 -21.1880 -20.9471 -20.6377 -20.5404
   -20.5180 -20.4998 -20.4795 -20.4272 -20.3570 -20.0784 -20.0425 -18.7168
   -16.6859 -14.8609 -14.5338 -14.3563 -14.3498 -14.2256 -13.8891 -13.6751
   -13.6308 -13.6192 -13.4907 -13.4153 -13.0954 -13.0276 -12.9099 -12.7677
   -12.6468 -12.5622 -11.9257 -11.8971 -11.5698 -11.4967 -11.4619 -11.2909
   -11.1531 -10.9342 -10.8834 -10.7981 -10.7472 -10.7186 -10.5072 -10.4692
   -10.4291 -10.3148 -10.3051 -10.1809 -10.1067 -10.0560  -9.9810  -9.8823
    -9.7468  -9.4703  -9.3920  -9.3188  -9.2949  -9.2523  -9.2309  -9.1993
    -9.1952  -9.0994  -9.0630  -8.9023  -8.7944  -8.7394  -8.3347  -8.2711
    -8.1803  -8.0832  -8.0207  -7.9796  -7.9103  -7.8017  -7.6146  -7.0911
    -7.0306  -6.9631  -6.9463  -6.9186  -6.8763  -6.8633  -6.8180  -6.7857
    -6.5725  -6.2727  -5.9156  -5.0193  -1.6547  -1.0658  -1.0181  -0.9175
    -0.8542  -0.7995  -0.7947  -0.7710  -0.6962  -0.4404  -0.2711  -0.2101
    -0.2096  -0.1717  -0.1295   0.0363   0.0677   0.6108   0.6270   0.7029
     0.7746   0.8555   0.9088   1.0008   1.0104   1.0363   1.0444   1.4714
     1.5007   1.5382   1.5783   1.5871   1.5909   1.6082   1.6165   1.8040
     1.8412   2.1073   2.1330   2.4362   2.4962   2.7148   2.7359   2.8015
     2.8212   2.8756   2.9047   2.9701   3.0231   3.0319   3.0797   3.1802
     3.2843   3.3081   3.3167   3.3340   3.3550   3.5592   3.7412   3.7738
     3.9119   3.9461   3.9550   3.9760   4.2467   4.3050   4.3571   4.4057
     4.5227   4.5477   4.5688   4.5969   4.6282   4.6765   4.6859   4.7690
     4.8244   4.8692   4.8866   4.9136   4.9298   4.9409   4.9780   5.0271
     5.1786   5.2079   5.2374   5.2893   5.3252   5.3360   5.3594   5.4410
     5.5208   5.5648   5.5880   5.6028   5.6048   5.6158   5.6179   5.6568

          k = 0.4821 0.3172 0.0000 (109372 PWs)   bands (ev):

   -23.3890 -23.2289 -22.9911 -22.7651 -22.4379 -22.1837 -22.0889 -22.0104
   -21.8961 -21.6890 -21.3178 -21.2556 -21.1637 -20.9443 -20.6395 -20.5435
   -20.5271 -20.4927 -20.4753 -20.4267 -20.3561 -20.0851 -20.0375 -18.7169
   -16.6859 -14.8618 -14.5387 -14.3680 -14.3424 -14.2088 -13.8875 -13.6746
   -13.6312 -13.6200 -13.4913 -13.4160 -13.1388 -13.0036 -12.9127 -12.7703
   -12.6299 -12.5468 -11.9262 -11.8978 -11.5863 -11.5492 -11.4088 -11.2816
   -11.1712 -10.9411 -10.8799 -10.7974 -10.7465 -10.6932 -10.5095 -10.4781
   -10.4191 -10.3284 -10.3058 -10.1658 -10.1253 -10.0564  -9.9762  -9.8707
    -9.7428  -9.4768  -9.3996  -9.3332  -9.2982  -9.2590  -9.2217  -9.2029
    -9.1857  -9.0980  -9.0513  -8.9014  -8.7868  -8.7387  -8.3461  -8.2755
    -8.1648  -8.1160  -8.0573  -7.9282  -7.9117  -7.7836  -7.6166  -7.0960
    -7.0304  -6.9734  -6.9551  -6.9052  -6.8727  -6.8644  -6.8178  -6.7842
    -6.5710  -6.2760  -5.9155  -5.0189  -1.6554  -1.0707  -1.0113  -0.9254
    -0.8531  -0.8082  -0.7986  -0.7681  -0.6697  -0.4411  -0.2740  -0.2543
    -0.2098  -0.1269  -0.1254   0.0373   0.0686   0.5662   0.6287   0.6881
     0.7665   0.8639   0.9579   0.9667   0.9678   1.0797   1.0898   1.4725
     1.5019   1.5333   1.5646   1.5884   1.5964   1.6095   1.6190   1.8073
     1.8435   2.0579   2.1843   2.4370   2.4971   2.6128   2.6968   2.8405
     2.8589   2.9141   2.9258   2.9745   3.0211   3.0322   3.0790   3.1830
     3.2640   3.2802   3.2874   3.3717   3.3992   3.5633   3.7434   3.7755
     3.8238   3.8501   4.0484   4.0724   4.2438   4.3015   4.3533   4.3993
     4.4797   4.5358   4.5892   4.6154   4.6228   4.6771   4.6882   4.7651
     4.7901   4.8560   4.9006   4.9232   4.9329   4.9625   4.9885   5.0491
     5.1554   5.1918   5.2539   5.2993   5.3305   5.3377   5.3605   5.4362
     5.5253   5.5358   5.5554   5.5912   5.6210   5.6284   5.6445   5.6461

          k = 0.4655 0.3460 0.0000 (109365 PWs)   bands (ev):

   -23.3886 -23.2273 -22.9987 -22.7571 -22.4383 -22.1989 -22.0796 -22.0016
   -21.8921 -21.6878 -21.3571 -21.2698 -21.1192 -20.9365 -20.6446 -20.5542
   -20.5395 -20.4835 -20.4647 -20.4248 -20.3533 -20.0998 -20.0278 -18.7170
   -16.6860 -14.8647 -14.5509 -14.3966 -14.3180 -14.1702 -13.8828 -13.6733
   -13.6326 -13.6216 -13.4933 -13.4189 -13.2052 -13.0198 -12.8922 -12.7704
   -12.5832 -12.5087 -11.9279 -11.8999 -11.6280 -11.6118 -11.3530 -11.2781
   -11.1828 -10.9917 -10.8319 -10.7954 -10.7444 -10.6432 -10.5166 -10.4922
   -10.4004 -10.3588 -10.3093 -10.1606 -10.1309 -10.0712  -9.9607  -9.8434
    -9.7302  -9.4941  -9.4247  -9.3641  -9.3099  -9.2734  -9.2125  -9.2003
    -9.1533  -9.0949  -9.0290  -8.8986  -8.7656  -8.7364  -8.3765  -8.2787
    -8.1822  -8.1318  -8.1072  -7.9158  -7.8554  -7.7401  -7.6223  -7.1091
    -7.0299  -6.9993  -6.9665  -6.8878  -6.8676  -6.8608  -6.8173  -6.7785
    -6.5668  -6.2857  -5.9154  -5.0180  -1.6574  -1.0806  -0.9985  -0.9400
    -0.8499  -0.8443  -0.7957  -0.7415  -0.6192  -0.4425  -0.3112  -0.2828
    -0.2095  -0.1200  -0.0623   0.0401   0.0711   0.5101   0.5568   0.6601
     0.7673   0.9034   0.9128   0.9372   1.0498   1.1391   1.1496   1.4757
     1.5052   1.5188   1.5418   1.5921   1.5974   1.6132   1.6253   1.8158
     1.8497   1.9997   2.2484   2.4397   2.4998   2.5019   2.5855   2.8301
     2.9217   2.9546   2.9861   3.0166   3.0332   3.0408   3.0784   3.1906
     3.2127   3.2268   3.2959   3.4222   3.4570   3.5759   3.7197   3.7454
     3.7498   3.7804   4.1612   4.1859   4.2350   4.2909   4.3409   4.3808
     4.4235   4.5023   4.5790   4.6086   4.6426   4.6764   4.6998   4.7554
     4.7745   4.8344   4.8809   4.9522   4.9571   4.9953   5.0259   5.0983
     5.1152   5.1644   5.2742   5.3047   5.3372   5.3528   5.3711   5.4269
     5.4950   5.5118   5.5310   5.5658   5.6067   5.6262   5.6454   5.6702

          k = 0.4489 0.3747 0.0000 (109333 PWs)   bands (ev):

   -23.3880 -23.2247 -23.0100 -22.7456 -22.4386 -22.2180 -22.0705 -21.9868
   -21.8855 -21.6860 -21.4036 -21.2853 -21.0705 -20.9250 -20.6522 -20.5712
   -20.5502 -20.4744 -20.4536 -20.4200 -20.3490 -20.1182 -20.0177 -18.7174
   -16.6860 -14.8693 -14.5654 -14.4283 -14.2832 -14.1221 -13.8751 -13.6723
   -13.6359 -13.6225 -13.4971 -13.4256 -13.2696 -13.0690 -12.8888 -12.7334
   -12.5204 -12.4580 -11.9316 -11.9035 -11.6820 -11.6689 -11.3733 -11.2514
   -11.1560 -11.0442 -10.7921 -10.7687 -10.7411 -10.5979 -10.5282 -10.4974
   -10.3944 -10.3817 -10.3180 -10.1968 -10.0922 -10.0879  -9.9462  -9.8096
    -9.7091  -9.5183  -9.4686  -9.3995  -9.3280  -9.2840  -9.2182  -9.1716
    -9.1130  -9.0904  -9.0092  -8.8940  -8.7355  -8.7326  -8.4151  -8.2764
    -8.2553  -8.1638  -8.0945  -7.9224  -7.7800  -7.6856  -7.6315  -7.1276
    -7.0291  -7.0291  -6.9843  -6.8731  -6.8726  -6.8494  -6.8110  -6.7685
    -6.5610  -6.3017  -5.9153  -5.0165  -1.6606  -1.0912  -0.9955  -0.9434
    -0.8793  -0.8446  -0.7909  -0.7066  -0.5619  -0.4431  -0.3670  -0.2967
    -0.2075  -0.1108   0.0037   0.0449   0.0753   0.4474   0.4805   0.5817
     0.8196   0.8497   0.8589   1.0200   1.1336   1.2008   1.2117   1.4811
     1.4957   1.5108   1.5161   1.5954   1.5982   1.6194   1.6307   1.8268
     1.8582   1.9431   2.3142   2.3928   2.4440   2.4758   2.5041   2.7991
     2.9226   2.9971   3.0125   3.0360   3.0691   3.0811   3.1455   3.1672
     3.1806   3.2009   3.3079   3.4704   3.5166   3.5979   3.6184   3.6441
     3.7605   3.7885   4.2200   4.2730   4.2767   4.3021   4.3167   4.3531
     4.3698   4.4672   4.5278   4.5736   4.6365   4.6830   4.7367   4.7440
     4.7937   4.8351   4.8641   4.9743   4.9773   5.0312   5.0611   5.0777
     5.1425   5.1720   5.2869   5.2938   5.3413   5.3792   5.3830   5.4249
     5.4558   5.4698   5.5228   5.5377   5.5806   5.6197   5.6450   5.6518

          k = 0.4323 0.4035 0.0000 (109335 PWs)   bands (ev):

   -23.3872 -23.2212 -23.0235 -22.7321 -22.4384 -22.2383 -22.0634 -21.9669
   -21.8766 -21.6839 -21.4518 -21.3029 -21.0209 -20.9113 -20.6617 -20.5905
   -20.5614 -20.4648 -20.4465 -20.4103 -20.3431 -20.1390 -20.0085 -18.7178
   -16.6860 -14.8752 -14.5790 -14.4586 -14.2424 -14.0692 -13.8647 -13.6724
   -13.6416 -13.6211 -13.5034 -13.4412 -13.3237 -13.1235 -12.9139 -12.6630
   -12.4527 -12.3989 -11.9390 -11.9090 -11.7370 -11.7216 -11.4448 -11.2301
   -11.1301 -11.0427 -10.7877 -10.7364 -10.7068 -10.5804 -10.5384 -10.4807
   -10.4307 -10.3727 -10.3274 -10.2294 -10.1073 -10.0412  -9.9409  -9.7743
    -9.6830  -9.5460  -9.5221  -9.4357  -9.3453  -9.2918  -9.2238  -9.1388
    -9.0848  -9.0694  -8.9939  -8.8874  -8.7275  -8.7056  -8.4524  -8.3296
    -8.2688  -8.2234  -8.0584  -7.9311  -7.7041  -7.6439  -7.6276  -7.1490
    -7.0603  -7.0281  -7.0084  -6.8792  -6.8672  -6.8418  -6.7919  -6.7553
    -6.5546  -6.3233  -5.9153  -5.0145  -1.6644  -1.1014  -1.0073  -0.9419
    -0.8943  -0.8371  -0.7843  -0.6717  -0.5013  -0.4398  -0.4207  -0.3142
    -0.2036  -0.1008   0.0515   0.0720   0.0809   0.3712   0.4162   0.4996
     0.7976   0.8065   0.8793   1.1029   1.2142   1.2641   1.2753   1.4670
     1.4887   1.4887   1.5186   1.5929   1.6068   1.6282   1.6330   1.8372
     1.8669   1.8884   2.2829   2.3622   2.3897   2.4501   2.5097   2.7679
     2.9207   2.9990   3.0133   3.0421   3.0895   3.1088   3.1189   3.1871
     3.2122   3.2786   3.3214   3.5146   3.5214   3.5472   3.5772   3.6303
     3.7753   3.7999   4.1984   4.2467   4.2785   4.3153   4.3266   4.3936
     4.4203   4.4250   4.4628   4.5190   4.6438   4.6771   4.7342   4.7641
     4.8222   4.8510   4.8765   4.9861   4.9866   5.0523   5.0530   5.0820
     5.1862   5.2300   5.2804   5.2957   5.3459   5.3753   5.3905   5.4208
     5.4349   5.4454   5.4923   5.5231   5.5687   5.6079   5.6355   5.6409

          k = 0.4157 0.4323 0.0000 (109337 PWs)   bands (ev):

   -23.3864 -23.2167 -23.0380 -22.7183 -22.4375 -22.2583 -22.0583 -21.9435
   -21.8657 -21.6820 -21.4992 -21.3216 -20.9718 -20.8966 -20.6722 -20.6105
   -20.5737 -20.4549 -20.4433 -20.3968 -20.3361 -20.1618 -20.0005 -18.7183
   -16.6861 -14.8820 -14.5903 -14.4858 -14.1984 -14.0133 -13.8520 -13.6746
   -13.6494 -13.6181 -13.5133 -13.4721 -13.3593 -13.1748 -12.9467 -12.5814
   -12.3860 -12.3330 -11.9529 -11.9166 -11.7880 -11.7675 -11.5241 -11.2817
   -11.0725 -10.9921 -10.7823 -10.7306 -10.6578 -10.5894 -10.5406 -10.4659
   -10.4497 -10.3888 -10.3193 -10.2564 -10.1120  -9.9929  -9.9448  -9.7487
    -9.6597  -9.5749  -9.5631  -9.4712  -9.3609  -9.2992  -9.2310  -9.1041
    -9.0791  -9.0242  -8.9806  -8.8785  -8.7213  -8.6885  -8.4797  -8.4037
    -8.2829  -8.2555  -8.0273  -7.9398  -7.6587  -7.6286  -7.5699  -7.1713
    -7.0920  -7.0371  -7.0273  -6.8866  -6.8759  -6.8267  -6.7676  -6.7395
    -6.5491  -6.3499  -5.9155  -5.0123  -1.6686  -1.1109  -1.0216  -0.9627
    -0.8732  -0.8275  -0.7761  -0.6429  -0.4720  -0.4431  -0.4258  -0.3325
    -0.1980  -0.0914   0.0598   0.0876   0.1424   0.2890   0.3564   0.4226
     0.7471   0.7558   0.9415   1.1832   1.2881   1.3288   1.3400   1.4351
     1.4617   1.4985   1.5287   1.5902   1.6177   1.6319   1.6395   1.8360
     1.8446   1.8743   2.1766   2.2596   2.4561   2.4578   2.5162   2.7377
     2.9195   2.9972   3.0169   3.0496   3.0603   3.0698   3.1026   3.2229
     3.2997   3.3332   3.3959   3.4301   3.4562   3.5559   3.6383   3.6723
     3.7942   3.8144   4.1703   4.2100   4.2314   4.2706   4.2891   4.3635
     4.3988   4.4721   4.5093   4.5398   4.6532   4.6725   4.7296   4.7641
     4.8419   4.8773   4.9269   4.9592   4.9874   5.0449   5.0828   5.1254
     5.2228   5.2681   5.3024   5.3044   5.3484   5.3625   5.3659   5.3848
     5.4280   5.4642   5.4668   5.5217   5.5649   5.5990   5.6288   5.6289

          k = 0.3991 0.4611 0.0000 (109317 PWs)   bands (ev):

   -23.3856 -23.2113 -23.0525 -22.7057 -22.4355 -22.2767 -22.0547 -21.9182
   -21.8531 -21.6821 -21.5436 -21.3402 -20.9257 -20.8807 -20.6834 -20.6309
   -20.5866 -20.4468 -20.4404 -20.3817 -20.3279 -20.1864 -19.9937 -18.7189
   -16.6861 -14.8889 -14.5987 -14.5090 -14.1539 -13.9557 -13.8375 -13.6790
   -13.6582 -13.6163 -13.5285 -13.5129 -13.3783 -13.2187 -12.9795 -12.4959
   -12.3220 -12.2634 -11.9750 -11.9285 -11.8333 -11.8033 -11.6015 -11.3561
   -11.0004 -10.9313 -10.7763 -10.7236 -10.6410 -10.6026 -10.5283 -10.4988
   -10.4444 -10.3969 -10.3030 -10.2722 -10.1087  -9.9548  -9.9442  -9.7621
    -9.6368  -9.6035  -9.5640  -9.5053  -9.3757  -9.3075  -9.2403  -9.0743
    -9.0698  -8.9783  -8.9664  -8.8670  -8.7143  -8.6947  -8.4901  -8.4768
    -8.3400  -8.2352  -8.0089  -7.9421  -7.6750  -7.5544  -7.5146  -7.1934
    -7.1238  -7.0687  -7.0270  -6.8942  -6.8894  -6.8101  -6.7434  -6.7206
    -6.5461  -6.3799  -5.9159  -5.0099  -1.6726  -1.1196  -1.0335  -0.9869
    -0.8401  -0.8159  -0.7666  -0.6241  -0.5207  -0.4180  -0.3780  -0.3400
    -0.1912  -0.0837   0.0694   0.0944   0.2079   0.2147   0.2929   0.3570
     0.6984   0.7068   1.0050   1.2585   1.3467   1.3942   1.4021   1.4052
     1.4429   1.5106   1.5413   1.5873   1.6274   1.6308   1.6534   1.7862
     1.8471   1.8796   2.0717   2.1554   2.4672   2.5227   2.5285   2.7093
     2.9216   2.9987   3.0127   3.0213   3.0220   3.0571   3.1171   3.2315
     3.3249   3.3513   3.3837   3.4082   3.5128   3.5995   3.6994   3.7212
     3.8170   3.8321   4.1360   4.1626   4.1828   4.2211   4.2474   4.2867
     4.3405   4.4366   4.6118   4.6582   4.6596   4.6760   4.7424   4.7618
     4.8367   4.9249   4.9337   4.9409   5.0090   5.0623   5.1254   5.1748
     5.2217   5.2829   5.3017   5.3320   5.3390   5.3483   5.3711   5.3747
     5.4109   5.4552   5.4911   5.5280   5.5617   5.5628   5.5862   5.6103

          k = 0.3825 0.4899 0.0000 (109309 PWs)   bands (ev):

   -23.3851 -23.2051 -23.0661 -22.6954 -22.4327 -22.2923 -22.0520 -21.8921
   -21.8393 -21.6883 -21.5800 -21.3575 -20.8928 -20.8549 -20.6953 -20.6511
   -20.5993 -20.4443 -20.4332 -20.3667 -20.3186 -20.2124 -19.9882 -18.7196
   -16.6861 -14.8954 -14.6044 -14.5276 -14.1117 -13.8975 -13.8216 -13.6867
   -13.6670 -13.6212 -13.5609 -13.5369 -13.3899 -13.2524 -13.0090 -12.4097
   -12.2600 -12.1962 -12.0038 -11.9479 -11.8736 -11.8274 -11.6693 -11.4327
   -10.9259 -10.8707 -10.7704 -10.7157 -10.6555 -10.6159 -10.5284 -10.5150
   -10.4712 -10.3784 -10.2887 -10.2676 -10.1046  -9.9659  -9.8971  -9.8120
    -9.6301  -9.6010  -9.5403  -9.5370  -9.3897  -9.3174  -9.2503  -9.0715
    -9.0380  -8.9494  -8.9328  -8.8525  -8.7222  -8.7079  -8.5475  -8.4873
    -8.3924  -8.2082  -8.0123  -7.9295  -7.6916  -7.4866  -7.4605  -7.2139
    -7.1552  -7.1018  -7.0275  -6.9031  -6.9010  -6.7949  -6.7218  -6.6979
    -6.5478  -6.4109  -5.9167  -5.0075  -1.6762  -1.1271  -1.0421  -1.0073
    -0.8055  -0.8022  -0.7565  -0.6141  -0.5659  -0.4155  -0.3483  -0.2957
    -0.1829  -0.0799   0.0770   0.0967   0.1359   0.2283   0.2889   0.3040
     0.6515   0.6598   1.0693   1.3210   1.3631   1.3743   1.4575   1.4594
     1.4700   1.5252   1.5570   1.5837   1.6195   1.6450   1.6703   1.7404
     1.8439   1.8834   1.9686   2.0536   2.4781   2.5279   2.6031   2.6838
     2.9287   2.9666   2.9744   3.0064   3.0293   3.0649   3.1301   3.2323
     3.2625   3.2811   3.3743   3.5013   3.6239   3.6604   3.7590   3.7744
     3.8433   3.8537   4.0953   4.1111   4.1320   4.1610   4.1964   4.2108
     4.2897   4.4084   4.6580   4.6624   4.6890   4.7606   4.7795   4.8020
     4.8418   4.8966   4.9098   4.9924   5.0653   5.0928   5.1703   5.2144
     5.2279   5.2750   5.2805   5.2969   5.3361   5.3363   5.3781   5.3997
     5.4382   5.4667   5.4698   5.4853   5.5190   5.5354   5.5635   5.6250

          k = 0.3659 0.5187 0.0000 (109309 PWs)   bands (ev):

   -23.3849 -23.1983 -23.0783 -22.6880 -22.4306 -22.3034 -22.0502 -21.8660
   -21.8250 -21.7076 -21.6009 -21.3725 -20.8801 -20.8138 -20.7081 -20.6708
   -20.6109 -20.4438 -20.4250 -20.3526 -20.3084 -20.2392 -19.9840 -18.7203
   -16.6861 -14.9007 -14.6076 -14.5414 -14.0758 -13.8416 -13.8039 -13.6999
   -13.6753 -13.6399 -13.5893 -13.5486 -13.3995 -13.2742 -13.0326 -12.3259
   -12.1996 -12.1413 -12.0352 -11.9734 -11.9164 -11.8375 -11.7188 -11.5038
   -10.8522 -10.8151 -10.7657 -10.7067 -10.6805 -10.6344 -10.5533 -10.5311
   -10.4895 -10.3514 -10.2713 -10.2523 -10.1098  -9.9711  -9.8673  -9.8547
    -9.6530  -9.5645  -9.5612  -9.5149  -9.4015  -9.3305  -9.2574  -9.0715
    -9.0112  -8.9294  -8.8887  -8.8349  -8.7597  -8.7065  -8.6111  -8.4811
    -8.4367  -8.1766  -8.0307  -7.9093  -7.7068  -7.4419  -7.3959  -7.2323
    -7.1853  -7.1343  -7.0291  -6.9146  -6.9061  -6.7824  -6.7024  -6.6731
    -6.5577  -6.4384  -5.9179  -5.0053  -1.6790  -1.1328  -1.0476  -1.0226
    -0.7866  -0.7757  -0.7474  -0.6064  -0.6058  -0.4331  -0.3121  -0.2327
    -0.1725  -0.0843   0.0406   0.0917   0.1133   0.1772   0.2606   0.3649
     0.6064   0.6147   1.1339   1.3275   1.3338   1.4044   1.4948   1.5192
     1.5302   1.5462   1.5784   1.5786   1.6095   1.6528   1.6904   1.7069
     1.8351   1.8679   1.8872   1.9552   2.4903   2.5300   2.6632   2.6795
     2.9220   2.9292   2.9409   3.0213   3.0396   3.0734   3.1393   3.1835
     3.2053   3.2521   3.3809   3.5637   3.7226   3.7561   3.8137   3.8303
     3.8722   3.8820   4.0452   4.0622   4.0770   4.0926   4.1224   4.1543
     4.2496   4.3859   4.6590   4.6717   4.7051   4.7588   4.8223   4.8638
     4.8808   4.9054   4.9393   5.0363   5.1199   5.1363   5.2026   5.2159
     5.2544   5.2595   5.2662   5.2844   5.3121   5.3418   5.3742   5.3853
     5.3872   5.3948   5.4917   5.5061   5.5358   5.5431   5.5575   5.5766

          k = 0.3493 0.5475 0.0000 (109329 PWs)   bands (ev):

   -23.3854 -23.1910 -23.0882 -22.6837 -22.4311 -22.3079 -22.0490 -21.8410
   -21.8117 -21.7392 -21.6051 -21.3842 -20.8768 -20.7703 -20.7221 -20.6887
   -20.6206 -20.4432 -20.4178 -20.3409 -20.2993 -20.2636 -19.9810 -18.7209
   -16.6860 -14.9043 -14.6087 -14.5502 -14.0508 -13.8005 -13.7774 -13.7181
   -13.6844 -13.6652 -13.6058 -13.5528 -13.4086 -13.2849 -13.0482 -12.2508
   -12.1435 -12.1142 -12.0615 -12.0063 -11.9521 -11.8373 -11.7447 -11.5603
   -10.7883 -10.7667 -10.7641 -10.7068 -10.6966 -10.6595 -10.5719 -10.5554
   -10.5078 -10.3210 -10.2519 -10.2362 -10.1302  -9.9669  -9.9105  -9.8233
    -9.6702  -9.5835  -9.5272  -9.4969  -9.4080  -9.3469  -9.2575  -9.0751
    -8.9921  -8.9085  -8.8484  -8.8152  -8.7967  -8.7282  -8.6475  -8.4769
    -8.4690  -8.1450  -8.0559  -7.8896  -7.7185  -7.4208  -7.3262  -7.2504
    -7.2127  -7.1616  -7.0320  -6.9214  -6.9086  -6.7729  -6.6850  -6.6497
    -6.5788  -6.4568  -5.9197  -5.0032  -1.6809  -1.1362  -1.0507  -1.0322
    -0.7698  -0.7578  -0.7434  -0.6358  -0.5940  -0.4542  -0.2741  -0.1721
    -0.1584  -0.1021  -0.0246   0.0813   0.1204   0.1541   0.2286   0.4419
     0.5634   0.5722   1.1973   1.2990   1.3038   1.4491   1.5241   1.5535
     1.5660   1.5693   1.5982   1.6026   1.6106   1.6356   1.7062   1.7137
     1.7741   1.8224   1.8641   1.8922   2.5029   2.5273   2.6495   2.7575
     2.8792   2.8861   2.9557   3.0435   3.0542   3.0819   3.1202   3.1416
     3.1543   3.2532   3.3863   3.5980   3.8259   3.8496   3.8606   3.8855
     3.9027   3.9258   3.9895   4.0028   4.0153   4.0326   4.0548   4.1012
     4.2191   4.3708   4.6621   4.6723   4.7220   4.7532   4.8201   4.8561
     4.8591   5.0289   5.0576   5.0604   5.1637   5.1900   5.1921   5.2190
     5.2285   5.2508   5.2525   5.2842   5.2945   5.3142   5.3427   5.3617
     5.3726   5.4055   5.4389   5.4760   5.4918   5.5179   5.5381   5.5623

          k = 0.3327 0.5763 0.0000 (109318 PWs)   bands (ev):

   -23.3866 -23.1837 -23.0952 -22.6823 -22.4359 -22.3047 -22.0483 -21.8189
   -21.8102 -21.7646 -21.5992 -21.3918 -20.8790 -20.7423 -20.7338 -20.6950
   -20.6278 -20.4424 -20.4121 -20.3364 -20.3015 -20.2704 -19.9791 -18.7216
   -16.6859 -14.9058 -14.6077 -14.5539 -14.0412 -13.7880 -13.7544 -13.7357
   -13.6896 -13.6706 -13.6173 -13.5502 -13.4158 -13.2865 -13.0534 -12.2077
   -12.1223 -12.0998 -12.0755 -12.0439 -11.9524 -11.8417 -11.7442 -11.5885
   -10.7754 -10.7674 -10.7320 -10.7062 -10.6849 -10.6813 -10.5824 -10.5732
   -10.5190 -10.3076 -10.2369 -10.2196 -10.1523  -9.9657  -9.9253  -9.8103
    -9.6840  -9.5840  -9.5147  -9.4831  -9.4111  -9.3590  -9.2480  -9.0835
    -8.9838  -8.8941  -8.8201  -8.8159  -8.8078  -8.7662  -8.6461  -8.4849
    -8.4765  -8.1231  -8.0799  -7.8730  -7.7248  -7.4192  -7.2762  -7.2665
    -7.2279  -7.1765  -7.0356  -6.9209  -6.9081  -6.7665  -6.6733  -6.6373
    -6.5988  -6.4645  -5.9221  -5.0014  -1.6818  -1.1370  -1.0516  -1.0359
    -0.7615  -0.7554  -0.7424  -0.6481  -0.5797  -0.4669  -0.2530  -0.1550
    -0.1325  -0.1088  -0.0762   0.0787   0.1254   0.1480   0.2159   0.5057
     0.5240   0.5450   1.2465   1.2712   1.2826   1.4700   1.5427   1.5528
     1.5704   1.5777   1.6031   1.6049   1.6559   1.6595   1.6663   1.7125
     1.7641   1.8039   1.8088   1.8990   2.5069   2.5273   2.6441   2.8255
     2.8402   2.8545   2.9659   3.0632   3.0723   3.0750   3.0957   3.1045
     3.1568   3.2539   3.3884   3.6139   3.8728   3.9021   3.9185   3.9286
     3.9321   3.9365   3.9395   3.9503   3.9751   4.0000   4.0322   4.0688
     4.1982   4.3663   4.6666   4.6720   4.7306   4.7492   4.8166   4.8490
     4.8557   5.0655   5.1291   5.1670   5.1717   5.1782   5.1913   5.1938
     5.2040   5.2065   5.2520   5.2720   5.2827   5.3097   5.3215   5.3832
     5.3937   5.3971   5.4035   5.4252   5.4374   5.5274   5.5500   5.5789

          k = 0.2995 0.5187 0.0000 (109315 PWs)   bands (ev):

   -23.3828 -23.2064 -23.0719 -22.6896 -22.4105 -22.3220 -22.0597 -21.8908
   -21.7590 -21.7276 -21.6197 -21.3651 -20.8794 -20.7840 -20.7445 -20.6797
   -20.5919 -20.4490 -20.4410 -20.3388 -20.2908 -20.2528 -19.9863 -18.7191
   -16.6864 -14.9008 -14.6069 -14.5421 -14.0607 -13.8322 -13.7996 -13.7386
   -13.7219 -13.6112 -13.5794 -13.5402 -13.4055 -13.2567 -13.0328 -12.2994
   -12.1706 -12.1484 -12.1103 -11.9797 -11.8989 -11.8562 -11.7093 -11.4796
   -10.8337 -10.7708 -10.7639 -10.7449 -10.7109 -10.6047 -10.5828 -10.5508
   -10.4299 -10.3958 -10.2943 -10.2339 -10.0947  -9.9305  -9.9025  -9.8464
    -9.6605  -9.5794  -9.5665  -9.5057  -9.4084  -9.3245  -9.2917  -9.0501
    -9.0390  -8.9078  -8.9008  -8.7644  -8.7511  -8.7070  -8.6594  -8.4763
    -8.4301  -8.1769  -8.0480  -7.8956  -7.7154  -7.4372  -7.3373  -7.2982
    -7.2043  -7.1085  -7.0218  -6.9294  -6.9087  -6.8071  -6.7264  -6.6168
    -6.5452  -6.4512  -5.9128  -5.0082  -1.6782  -1.1331  -1.0434  -1.0283
    -0.8085  -0.7585  -0.7137  -0.6318  -0.6176  -0.4463  -0.3170  -0.2316
    -0.1231  -0.0769   0.0208   0.0608   0.1530   0.1708   0.2477   0.4282
     0.4666   0.6914   1.1844   1.2252   1.3823   1.4255   1.4643   1.4731
     1.4964   1.5597   1.5682   1.6178   1.6332   1.6469   1.7308   1.7667
     1.8326   1.8402   1.8827   1.9155   2.4786   2.5450   2.6623   2.7471
     2.7757   2.9356   2.9991   3.0080   3.0886   3.1036   3.1450   3.1623
     3.1755   3.2459   3.3838   3.5670   3.7469   3.7584   3.8019   3.8484
     3.8671   3.9285   3.9831   4.0065   4.0305   4.0511   4.1601   4.1928
     4.2706   4.4145   4.6507   4.6756   4.7048   4.7718   4.8276   4.8569
     4.8702   4.9630   4.9842   4.9979   5.0925   5.0947   5.1152   5.1939
     5.2165   5.2510   5.2583   5.3022   5.3630   5.4028   5.4207   5.4358
     5.4417   5.4611   5.4643   5.4673   5.4882   5.5201   5.5405   5.5493

          k = 0.2662 0.4610 0.0000 (109327 PWs)   bands (ev):

   -23.3869 -23.2141 -23.0450 -22.7047 -22.4124 -22.3113 -22.0886 -21.9449
   -21.7470 -21.6668 -21.6027 -21.3301 -20.9071 -20.8253 -20.7917 -20.6404
   -20.5448 -20.4906 -20.4524 -20.3567 -20.2707 -20.2140 -19.9967 -18.7167
   -16.6862 -14.8878 -14.5883 -14.5183 -14.0990 -13.9218 -13.8358 -13.7922
   -13.7486 -13.6388 -13.5455 -13.4401 -13.3591 -13.1682 -12.9681 -12.4586
   -12.2974 -12.1819 -12.1227 -12.0168 -11.8694 -11.7576 -11.5585 -11.3075
   -10.9500 -10.8444 -10.8100 -10.7676 -10.6771 -10.6463 -10.5676 -10.5103
   -10.4550 -10.4073 -10.3068 -10.1764 -10.0460  -9.8935  -9.8815  -9.8573
    -9.7067  -9.6801  -9.5328  -9.4600  -9.4531  -9.3962  -9.2030  -9.1476
    -9.0581  -8.9901  -8.8618  -8.7386  -8.6995  -8.6321  -8.5847  -8.4909
    -8.3456  -8.2531  -8.0986  -7.8401  -7.7138  -7.5062  -7.4058  -7.3551
    -7.1942  -7.0059  -7.0012  -6.9475  -6.8949  -6.8655  -6.7711  -6.5836
    -6.4847  -6.4348  -5.9069  -5.0136  -1.6720  -1.1188  -1.0226  -1.0066
    -0.8768  -0.7878  -0.6969  -0.6592  -0.5674  -0.5004  -0.4216  -0.2151
    -0.1058  -0.0739   0.0155   0.1603   0.2169   0.2473   0.3142   0.3576
     0.3968   0.8662   1.1263   1.1698   1.2791   1.3032   1.3563   1.3634
     1.4565   1.5007   1.5456   1.6547   1.6722   1.7013   1.7929   1.8174
     1.8331   1.8701   1.9925   2.0609   2.4260   2.5876   2.6756   2.6943
     2.7053   2.9226   2.9724   3.1123   3.1358   3.1428   3.1826   3.2015
     3.2712   3.3048   3.3810   3.4913   3.5785   3.6090   3.6597   3.7142
     3.7628   3.8411   4.0227   4.0587   4.0943   4.1092   4.2512   4.4045
     4.4361   4.5283   4.6273   4.6737   4.6876   4.7233   4.8074   4.8132
     4.8173   4.8667   4.8930   4.9197   5.0327   5.0564   5.0757   5.0892
     5.1169   5.1560   5.2566   5.2957   5.3392   5.4390   5.4450   5.4735
     5.4843   5.5072   5.5443   5.5559   5.5632   5.5936   5.5968   5.6122

          k = 0.2329 0.4034 0.0000 (109369 PWs)   bands (ev):

   -23.3993 -23.2065 -23.0148 -22.7208 -22.4332 -22.3062 -22.1263 -21.9703
   -21.7422 -21.6007 -21.5611 -21.2903 -20.9495 -20.8651 -20.8329 -20.6369
   -20.5563 -20.4788 -20.4630 -20.3605 -20.2459 -20.1768 -20.0091 -18.7145
   -16.6852 -14.8673 -14.5531 -14.4828 -14.1439 -14.0055 -13.8901 -13.8259
   -13.7867 -13.7037 -13.5742 -13.3293 -13.2327 -13.0538 -12.8723 -12.6370
   -12.4569 -12.1911 -12.1228 -12.0416 -11.8715 -11.6254 -11.3695 -11.1209
   -11.0714 -10.9294 -10.8576 -10.7997 -10.7518 -10.6690 -10.6295 -10.5062
   -10.4631 -10.3252 -10.2424 -10.0980 -10.0093  -9.9378  -9.8373  -9.8323
    -9.7769  -9.7522  -9.5736  -9.5085  -9.4827  -9.3804  -9.2458  -9.1261
    -9.0792  -9.0618  -8.7815  -8.7073  -8.6433  -8.5750  -8.5303  -8.4741
    -8.3482  -8.2475  -8.1426  -7.7965  -7.7097  -7.5907  -7.4829  -7.3992
    -7.2146  -7.0580  -6.9805  -6.9042  -6.8719  -6.8609  -6.7923  -6.5475
    -6.4277  -6.4130  -5.9056  -5.0157  -1.6666  -1.0992  -1.0027  -0.9603
    -0.9393  -0.8182  -0.7653  -0.6118  -0.5964  -0.5246  -0.5071  -0.1616
    -0.0923  -0.0336  -0.0165   0.2762   0.2948   0.2951   0.3320   0.3348
     0.4239   1.0479   1.0736   1.1010   1.1179   1.1543   1.1863   1.2499
     1.3874   1.4904   1.5918   1.6312   1.7347   1.7645   1.8102   1.8284
     1.8612   1.9009   2.1508   2.2190   2.3755   2.6117   2.6359   2.6425
     2.7359   2.9404   2.9862   3.1192   3.1509   3.1730   3.1775   3.3518
     3.3623   3.3721   3.4161   3.4345   3.4474   3.4804   3.5119   3.5879
     3.6701   3.7487   3.9897   4.1293   4.1425   4.1774   4.3056   4.4209
     4.5198   4.5751   4.5870   4.6362   4.6491   4.7165   4.7656   4.8252
     4.8678   4.8737   4.9408   4.9479   4.9730   4.9834   5.0061   5.0157
     5.0695   5.1257   5.1610   5.2527   5.3048   5.3822   5.4313   5.4586
     5.4887   5.5051   5.5250   5.5333   5.5522   5.5941   5.6401   5.6566

          k = 0.1996 0.3458 0.0000 (109285 PWs)   bands (ev):

   -23.4165 -23.1878 -22.9817 -22.7341 -22.4570 -22.3382 -22.1696 -21.9530
   -21.7268 -21.5451 -21.5015 -21.2492 -20.9963 -20.9138 -20.8591 -20.6875
   -20.5811 -20.4783 -20.4489 -20.3377 -20.2193 -20.1431 -20.0222 -18.7126
   -16.6831 -14.8412 -14.5035 -14.4352 -14.1851 -14.0797 -13.9479 -13.8600
   -13.8269 -13.7703 -13.6262 -13.2066 -13.0911 -12.9289 -12.8246 -12.7563
   -12.6171 -12.1859 -12.1062 -12.0527 -11.8745 -11.4986 -11.1997 -11.1708
   -11.0224 -10.9547 -10.9289 -10.9001 -10.7617 -10.7486 -10.5787 -10.5747
   -10.4100 -10.2132 -10.1963 -10.0240  -9.9845  -9.9768  -9.9166  -9.8167
    -9.7924  -9.7818  -9.6199  -9.5850  -9.5325  -9.4367  -9.2922  -9.1358
    -9.0830  -8.9823  -8.6942  -8.6637  -8.6330  -8.6012  -8.5181  -8.4197
    -8.3575  -8.1623  -8.1439  -7.7985  -7.6866  -7.6778  -7.5662  -7.4348
    -7.2483  -7.1854  -6.9426  -6.9278  -6.8451  -6.8411  -6.7327  -6.5081
    -6.3840  -6.3756  -5.9100  -5.0130  -1.6658  -1.0812  -0.9943  -0.9893
    -0.8981  -0.8366  -0.8197  -0.7207  -0.6144  -0.5257  -0.4381  -0.1500
    -0.1167  -0.0275   0.0969   0.2400   0.2807   0.3429   0.3837   0.4529
     0.5492   0.9302   0.9862   1.0161   1.0283   1.0713   1.1144   1.2403
     1.3306   1.4649   1.5524   1.6114   1.7356   1.8052   1.8355   1.8535
     1.9367   1.9741   2.3114   2.3306   2.3825   2.5557   2.5881   2.6893
     2.7862   2.9665   3.0191   3.1125   3.1339   3.2069   3.2240   3.2243
     3.2556   3.3488   3.3626   3.3694   3.4880   3.5537   3.5864   3.5904
     3.6054   3.6632   3.9287   4.1130   4.1486   4.2233   4.2571   4.4156
     4.4406   4.4732   4.4925   4.6504   4.7367   4.7446   4.8750   4.8846
     4.8966   4.9200   4.9213   4.9560   4.9563   4.9677   4.9808   5.0191
     5.0451   5.0766   5.1327   5.1791   5.2598   5.3101   5.3703   5.4088
     5.4660   5.4980   5.5258   5.5802   5.5823   5.6008   5.6053   5.6297

          k = 0.1664 0.2882 0.0000 (109315 PWs)   bands (ev):

   -23.4345 -23.1629 -22.9465 -22.7417 -22.4805 -22.3946 -22.2230 -21.9003
   -21.6997 -21.4990 -21.4337 -21.2113 -21.0393 -20.9693 -20.8741 -20.7614
   -20.6079 -20.4930 -20.4414 -20.2935 -20.1921 -20.1140 -20.0350 -18.7110
   -16.6800 -14.8131 -14.4424 -14.3753 -14.2153 -14.1421 -14.0035 -13.9125
   -13.8561 -13.8307 -13.6762 -13.0764 -13.0238 -12.9493 -12.7951 -12.7936
   -12.6031 -12.1740 -12.0778 -12.0527 -11.8769 -11.3987 -11.3233 -11.1291
   -11.0936 -10.9605 -10.9365 -10.8645 -10.8160 -10.6777 -10.6014 -10.5135
   -10.3516 -10.1730 -10.1239 -10.0338 -10.0096  -9.9851  -9.9594  -9.8428
    -9.8266  -9.7520  -9.6986  -9.6026  -9.5597  -9.5490  -9.3830  -9.1683
    -8.9785  -8.8928  -8.7137  -8.6946  -8.6120  -8.6095  -8.4588  -8.4110
    -8.2414  -8.1718  -8.0425  -7.8233  -7.7605  -7.6617  -7.6526  -7.4643
    -7.3370  -7.2636  -6.9962  -6.8960  -6.8599  -6.8181  -6.6354  -6.4655
    -6.3497  -6.3300  -5.9204  -5.0052  -1.6723  -1.0682  -1.0413  -0.9959
    -0.8986  -0.8486  -0.8162  -0.7740  -0.6638  -0.4471  -0.3611  -0.1715
    -0.1231  -0.0296   0.1931   0.2345   0.2470   0.4165   0.4578   0.5861
     0.6632   0.7670   0.8149   0.8548   0.9586   0.9897   1.0474   1.2830
     1.4328   1.4378   1.4599   1.5631   1.6568   1.8745   1.8835   1.9142
     2.0194   2.0536   2.2924   2.4700   2.5090   2.5259   2.5656   2.7471
     2.8447   2.9842   3.0610   3.0717   3.0969   3.1018   3.1462   3.2102
     3.2162   3.2537   3.2790   3.3919   3.4083   3.5212   3.5786   3.7460
     3.7594   3.7803   3.8014   3.9240   4.1449   4.2913   4.3134   4.3189
     4.3415   4.4422   4.4723   4.6774   4.7061   4.7604   4.8195   4.8611
     4.8913   4.8977   4.9017   4.9145   4.9289   4.9647   4.9810   4.9968
     5.0858   5.1661   5.1732   5.2237   5.2885   5.3370   5.3493   5.4239
     5.4601   5.4625   5.4752   5.5191   5.5505   5.6018   5.6129   5.6283

          k = 0.1331 0.2305 0.0000 (109401 PWs)   bands (ev):

   -23.4509 -23.1360 -22.9096 -22.7417 -22.5074 -22.4535 -22.2818 -21.8335
   -21.6610 -21.4573 -21.3708 -21.1824 -21.0707 -21.0291 -20.8816 -20.8344
   -20.6491 -20.5032 -20.4470 -20.2456 -20.1655 -20.0909 -20.0464 -18.7098
   -16.6762 -14.7866 -14.3746 -14.3067 -14.2284 -14.1909 -14.0527 -13.9727
   -13.8910 -13.8713 -13.7158 -13.1870 -13.0251 -12.9383 -12.7555 -12.6658
   -12.4728 -12.1660 -12.0647 -12.0208 -11.8733 -11.4940 -11.3330 -11.2657
   -11.1054 -11.0050 -10.9664 -10.7819 -10.7757 -10.5870 -10.4942 -10.4466
   -10.2891 -10.2065 -10.1332 -10.0548 -10.0354 -10.0038  -9.9568  -9.8544
    -9.8386  -9.7993  -9.6918  -9.6641  -9.5987  -9.5749  -9.4884  -9.2150
    -8.8887  -8.8465  -8.8001  -8.7512  -8.5537  -8.5344  -8.3969  -8.3657
    -8.1860  -8.1348  -7.9583  -7.8517  -7.8251  -7.7388  -7.6440  -7.4954
    -7.4572  -7.2954  -7.0785  -6.9034  -6.8470  -6.7934  -6.5444  -6.4205
    -6.3179  -6.2909  -5.9358  -4.9934  -1.6860  -1.0801  -1.0602  -1.0146
    -0.9545  -0.9094  -0.8376  -0.6948  -0.6192  -0.3606  -0.2764  -0.2005
    -0.1201  -0.0296   0.1546   0.1966   0.3843   0.4973   0.5363   0.6114
     0.6247   0.7006   0.7133   0.7301   0.8780   0.9568   1.0241   1.2441
     1.3509   1.3934   1.4730   1.5969   1.6430   1.8522   1.9695   2.0005
     2.1092   2.1396   2.2609   2.4666   2.4982   2.6311   2.7194   2.8082
     2.9083   2.9230   2.9539   3.0182   3.0680   3.0756   3.0840   3.1053
     3.1611   3.3099   3.3396   3.3422   3.4171   3.4625   3.5012   3.5637
     3.8105   3.9436   3.9684   3.9780   4.1341   4.1501   4.1736   4.3970
     4.4192   4.4338   4.5082   4.5939   4.6787   4.7119   4.7251   4.7876
     4.8311   4.8621   4.8753   4.9022   4.9253   4.9576   4.9678   5.0079
     5.0815   5.1987   5.2539   5.2595   5.3235   5.3311   5.3428   5.3647
     5.4093   5.4332   5.4483   5.5486   5.5608   5.6075   5.6454   5.6887

          k = 0.0998 0.1729 0.0000 (109357 PWs)   bands (ev):

   -23.4645 -23.1106 -22.8713 -22.7333 -22.5540 -22.4899 -22.3398 -21.7692
   -21.6084 -21.4209 -21.3236 -21.1670 -21.1024 -21.0736 -20.9020 -20.8738
   -20.7016 -20.5094 -20.4598 -20.2027 -20.1412 -20.0755 -20.0551 -18.7089
   -16.6722 -14.7647 -14.3125 -14.2438 -14.2273 -14.2113 -14.0905 -14.0175
   -13.9429 -13.8846 -13.7434 -13.3515 -13.1816 -12.7968 -12.6338 -12.5443
   -12.3393 -12.1700 -12.0663 -11.9668 -11.8576 -11.6440 -11.3993 -11.3772
   -11.1595 -11.0021 -10.9897 -10.7503 -10.6709 -10.4720 -10.3748 -10.3397
   -10.2860 -10.2250 -10.1782 -10.1228 -10.0526  -9.9988  -9.9390  -9.8758
    -9.8403  -9.8039  -9.7751  -9.6699  -9.6088  -9.5924  -9.5709  -9.2870
    -9.0049  -8.8957  -8.7097  -8.6739  -8.4885  -8.4725  -8.3330  -8.3182
    -8.2122  -8.0701  -7.9227  -7.8775  -7.8530  -7.8042  -7.6317  -7.5747
    -7.4943  -7.3244  -7.1655  -6.9631  -6.8026  -6.7725  -6.4664  -6.3745
    -6.2957  -6.2604  -5.9536  -4.9797  -1.7037  -1.1105  -1.0568  -1.0365
    -1.0013  -0.9681  -0.8766  -0.5846  -0.5126  -0.2664  -0.2240  -0.1845
    -0.1148  -0.0291   0.1244   0.1671   0.4096   0.4582   0.4634   0.5544
     0.5869   0.6360   0.7057   0.8483   0.9039   0.9334   1.0274   1.2137
     1.2361   1.3403   1.3794   1.5379   1.7827   1.8555   2.0631   2.0944
     2.2059   2.2316   2.2359   2.4357   2.4693   2.7726   2.7833   2.8080
     2.8711   2.8816   2.9295   2.9454   2.9652   3.0487   3.1095   3.1392
     3.1829   3.2710   3.3041   3.3749   3.4097   3.4135   3.4352   3.4608
     3.7384   4.0027   4.0368   4.1221   4.1521   4.1684   4.1825   4.3608
     4.3784   4.4995   4.5220   4.5613   4.6564   4.6978   4.7020   4.7653
     4.7873   4.8451   4.8538   4.8944   4.9213   4.9347   4.9789   4.9838
     5.0144   5.0698   5.1823   5.1929   5.2070   5.2419   5.3094   5.3666
     5.4991   5.5048   5.5390   5.5597   5.5729   5.6244   5.6526   5.6945

          k = 0.0665 0.1153 0.0000 (109373 PWs)   bands (ev):

   -23.4746 -23.0900 -22.8306 -22.7181 -22.6153 -22.5045 -22.3919 -21.7186
   -21.5399 -21.3953 -21.2969 -21.1796 -21.1598 -21.0629 -20.9357 -20.8696
   -20.7600 -20.5124 -20.4758 -20.1677 -20.1215 -20.0736 -20.0556 -18.7082
   -16.6687 -14.7490 -14.2798 -14.2448 -14.2111 -14.1594 -14.1219 -14.0266
   -13.9686 -13.8893 -13.7617 -13.5020 -13.3334 -12.6555 -12.5231 -12.4353
   -12.2412 -12.1696 -12.0710 -11.9029 -11.8639 -11.7510 -11.5031 -11.4697
   -11.2860 -11.0065 -10.8884 -10.7098 -10.6163 -10.4269 -10.3246 -10.3006
   -10.2620 -10.2031 -10.1652 -10.1087 -10.0567 -10.0184  -9.8985  -9.8903
    -9.8705  -9.8360  -9.7899  -9.6897  -9.6791  -9.6352  -9.5575  -9.3803
    -9.1239  -8.9602  -8.5889  -8.5800  -8.4274  -8.4132  -8.2905  -8.2709
    -8.2386  -8.0852  -7.9493  -7.9094  -7.8990  -7.7813  -7.6230  -7.5977
    -7.4989  -7.3638  -7.2417  -7.0293  -6.7687  -6.7555  -6.4037  -6.3298
    -6.2864  -6.2427  -5.9702  -4.9671  -1.7209  -1.1322  -1.0599  -1.0576
    -1.0382  -1.0014  -0.9079  -0.4654  -0.3831  -0.2381  -0.1645  -0.1043
    -0.0866  -0.0286   0.1028   0.1462   0.2608   0.3192   0.3232   0.4171
     0.6817   0.7362   0.7998   0.9077   0.9275   0.9697   1.0466   1.1211
     1.1921   1.2699   1.3196   1.4708   1.6840   2.0741   2.1642   2.1961
     2.2176   2.3089   2.3274   2.4137   2.4512   2.6426   2.6730   2.7878
     2.8021   2.9234   2.9336   3.0072   3.0126   3.0515   3.0665   3.1145
     3.1583   3.2445   3.2941   3.3557   3.4191   3.4194   3.4693   3.4958
     3.6546   3.8803   3.9100   4.1134   4.1215   4.3560   4.3564   4.3784
     4.3980   4.5568   4.6092   4.6393   4.6533   4.6829   4.7186   4.7216
     4.8131   4.8349   4.8462   4.8632   4.8945   4.9073   4.9388   4.9481
     4.9775   4.9884   5.0814   5.1117   5.1154   5.1307   5.2249   5.3101
     5.3297   5.3337   5.3991   5.5413   5.6093   5.6734   5.7488   5.8026

          k = 0.0333 0.0576 0.0000 (109447 PWs)   bands (ev):

   -23.4807 -23.0768 -22.7858 -22.7029 -22.6756 -22.5099 -22.4312 -21.6870
   -21.4596 -21.3848 -21.2996 -21.2287 -21.1836 -21.0404 -20.9347 -20.8684
   -20.8143 -20.5123 -20.4903 -20.1424 -20.1102 -20.0787 -20.0522 -18.7079
   -16.6663 -14.7397 -14.2716 -14.2511 -14.2004 -14.1467 -14.1123 -14.0272
   -13.9366 -13.8713 -13.7777 -13.6218 -13.4601 -12.5287 -12.4341 -12.3519
   -12.2630 -12.1374 -12.0320 -11.9627 -11.8277 -11.7442 -11.6017 -11.5520
   -11.3853 -11.0165 -10.7765 -10.6646 -10.5591 -10.5257 -10.3850 -10.3106
   -10.2331 -10.1186 -10.0925 -10.0418 -10.0279  -9.9827  -9.9422  -9.8834
    -9.8593  -9.8286  -9.7875  -9.7735  -9.7349  -9.6967  -9.5356  -9.4580
    -9.2183  -8.9916  -8.5119  -8.4797  -8.4033  -8.3194  -8.3187  -8.2271
    -8.2266  -8.1185  -8.0463  -7.9794  -7.9146  -7.7067  -7.6174  -7.5688
    -7.4881  -7.4312  -7.2823  -7.0869  -6.7516  -6.7406  -6.3567  -6.2975
    -6.2830  -6.2413  -5.9816  -4.9583  -1.7333  -1.1453  -1.0763  -1.0705
    -1.0547  -1.0154  -0.9258  -0.3666  -0.2521  -0.2264  -0.0778  -0.0553
    -0.0279   0.0118   0.0890   0.0901   0.1354   0.1773   0.1919   0.2922
     0.7823   0.8265   0.8911   0.8992   0.9492   0.9979   1.0353   1.0887
     1.1790   1.2065   1.2871   1.4118   1.5848   2.2065   2.2722   2.2855
     2.3173   2.3947   2.4022   2.4246   2.4677   2.5132   2.5463   2.6616
     2.6774   2.7868   2.9920   3.0268   3.0387   3.0583   3.0944   3.1612
     3.1631   3.2216   3.2980   3.4049   3.4056   3.4707   3.5548   3.5669
     3.5854   3.7653   3.7923   3.8963   4.1084   4.3434   4.5580   4.5803
     4.5979   4.6103   4.6359   4.6757   4.6818   4.7431   4.7491   4.7540
     4.7912   4.8220   4.8253   4.8486   4.8699   4.8735   4.9137   4.9346
     4.9625   4.9769   4.9839   4.9934   5.0328   5.0655   5.0726   5.1015
     5.1551   5.1631   5.3519   5.5211   5.6352   5.8038   5.8435   5.8843

          k = 0.0000 0.0000 0.0000 (109459 PWs)   bands (ev):

   -23.4828 -23.0723 -22.7420 -22.7276 -22.6935 -22.5106 -22.4470 -21.6761
   -21.3969 -21.3709 -21.3595 -21.2144 -21.2128 -21.0318 -20.9005 -20.8975
   -20.8342 -20.5108 -20.4972 -20.1312 -20.1088 -20.0804 -20.0511 -18.7077
   -16.6654 -14.7367 -14.2701 -14.2536 -14.1960 -14.1516 -14.1145 -14.0053
   -13.9252 -13.8236 -13.8097 -13.6690 -13.5182 -12.4695 -12.3664 -12.3337
   -12.3105 -12.1008 -12.0737 -11.9604 -11.7771 -11.7364 -11.6645 -11.5834
   -11.4266 -11.0199 -10.7099 -10.6368 -10.5928 -10.5078 -10.4417 -10.3552
   -10.2020 -10.0703 -10.0601 -10.0500 -10.0262  -9.9106  -9.8910  -9.8732
    -9.8452  -9.8353  -9.8185  -9.8091  -9.8060  -9.7316  -9.5130  -9.4979
    -9.2553  -9.0006  -8.4690  -8.4404  -8.4032  -8.3429  -8.2297  -8.2176
    -8.2014  -8.1910  -8.0706  -8.0311  -7.9206  -7.6644  -7.6154  -7.5230
    -7.5140  -7.4681  -7.2921  -7.1118  -6.7474  -6.7339  -6.3333  -6.3031
    -6.2590  -6.2547  -5.9855  -4.9552  -1.7378  -1.1497  -1.0809  -1.0803
    -1.0571  -1.0191  -0.9314  -0.3320  -0.2335  -0.0886  -0.0838  -0.0355
    -0.0166   0.0534   0.0622   0.0667   0.0889   0.1030   0.1433   0.2133
     0.8822   0.8891   0.8904   0.9058   0.9120   0.9311   1.0419   1.1618
     1.1747   1.1941   1.2215   1.4063   1.5333   2.2028   2.3807   2.3885
     2.3887   2.4031   2.4129   2.4395   2.5157   2.5311   2.5370   2.5434
     2.5798   2.5888   3.0245   3.0414   3.0499   3.0770   3.0879   3.1656
     3.2111   3.2235   3.2575   3.4054   3.4147   3.5131   3.5878   3.6777
     3.6827   3.6891   3.6902   3.6964   4.1069   4.3389   4.5961   4.6493
     4.6614   4.6674   4.6715   4.7217   4.7803   4.8158   4.8224   4.8262
     4.8269   4.8332   4.8377   4.8476   4.8609   4.8622   4.8733   4.8779
     4.8882   4.8883   4.9276   4.9303   4.9419   4.9452   4.9966   5.0602
     5.0955   5.1215   5.3452   5.5141   5.6410   5.8171   5.9000   5.9428

     Writing output data file ./TMP_DIR/hBN.save/
 
     init_run     :      1.71s CPU      2.36s WALL (       1 calls)
     electrons    :   6435.18s CPU   6486.06s WALL (       1 calls)

     Called by init_run:
     wfcinit      :      0.00s CPU      0.05s WALL (       1 calls)
     potinit      :      0.08s CPU      0.60s WALL (       1 calls)
     hinit0       :      0.52s CPU      0.53s WALL (       1 calls)

     Called by electrons:
     c_bands      :   6435.17s CPU   6485.99s WALL (       1 calls)
     v_of_rho     :      0.03s CPU      0.04s WALL (       1 calls)
     newd         :      0.03s CPU      0.07s WALL (       1 calls)
     PAW_pot      :      0.03s CPU      0.04s WALL (       1 calls)

     Called by c_bands:
     init_us_2    :      0.18s CPU      0.19s WALL (      31 calls)
     ccgdiagg     :   6329.94s CPU   6377.02s WALL (     186 calls)
     wfcrot       :     93.96s CPU     94.95s WALL (     186 calls)

     Called by *cgdiagg:
     h_psi        :   2881.80s CPU   2903.18s WALL (  397905 calls)
     s_psi        :   1851.07s CPU   1866.60s WALL (  795624 calls)

     Called by h_psi:
     h_psi:calbec :   1104.06s CPU   1112.15s WALL (  397905 calls)
     vloc_psi     :    812.20s CPU    819.98s WALL (  397905 calls)
     add_vuspsi   :    954.57s CPU    961.38s WALL (  397905 calls)
     hs_1psi      :   3736.38s CPU   3763.26s WALL (  397719 calls)
     s_1psi       :   1922.78s CPU   1936.36s WALL (  397719 calls)

     General routines
     calbec       :   2087.81s CPU   2104.60s WALL (  795624 calls)
     fft          :      0.02s CPU      0.03s WALL (      12 calls)
     fftw         :    717.38s CPU    724.10s WALL (  869838 calls)
     davcio       :      0.02s CPU      3.46s WALL (      62 calls)
 
     Parallel routines
 
     PWSCF        :      1h47m CPU      1h48m WALL

 
   This run was terminated on:   2: 7:32  15Nov2022            

=------------------------------------------------------------------------------=
   JOB DONE.
=------------------------------------------------------------------------------=
