
     Program BANDS v.6.8 starts on 15Nov2022 at  9:39:49 

     This program is part of the open-source Quantum ESPRESSO suite
     for quantum simulation of materials; please cite
         "P. Giannozzi et al., J. Phys.:Condens. Matter 21 395502 (2009);
         "P. Giannozzi et al., J. Phys.:Condens. Matter 29 465901 (2017);
         "P. Giannozzi et al., J. Chem. Phys. 152 154105 (2020);
          URL http://www.quantum-espresso.org", 
     in publications or presentations arising from this work. More details at
     http://www.quantum-espresso.org/quote

     Parallel version (MPI & OpenMP), running on      64 processor cores
     Number of MPI processes:                64
     Threads/MPI process:                     1

     MPI processes distributed on     2 nodes
     R & G space division:  proc/nbgrp/npool/nimage =      64
     167302 MiB available memory on the printing compute node when the environment starts
 

     Reading xml data from directory:

     ./TMP_DIR/hBN.save/
     file N.pbe-n-kjpaw_psl.1.0.0.UPF: wavefunction(s)  2S renormalized
     file C.pbe-n-kjpaw_psl.1.0.0.UPF: wavefunction(s)  2S 2P renormalized

     IMPORTANT: XC functional enforced from input :
     Exchange-correlation= PBE
                           (   1   4   3   4   0   0   0)
     Any further DFT definition will be discarded
     Please, verify this is what you really want

 
     Parallelization info
     --------------------
     sticks:   dense  smooth     PW     G-vecs:    dense   smooth      PW
     Min         146     146     38                13668    13668    1822
     Max         147     147     39                13677    13677    1826
     Sum        9383    9383   2451               874973   874973  116781
 
     Using Slab Decomposition
 
 ----2D----2D----2D----2D----2D----2D----2D----2D----2D----2D----2D----2D
  The code is running with the 2D cutoff
  Please refer to:
  Sohier, T., Calandra, M., & Mauri, F. (2017), 
  Density functional perturbation theory for gated two-dimensional heterostructu
 res:
  Theoretical developments and application to flexural phonons in graphene.
  Physical Review B, 96(7), 75448. https://doi.org/10.1103/PhysRevB.96.075448
 ----2D----2D----2D----2D----2D----2D----2D----2D----2D----2D----2D----2D

     Check: negative core charge=   -0.000007

     negative rho (up, down):  1.577E-02 0.000E+00
     Reading collected, re-writing distributed wavefunctions
     high-symmetry point:  0.0000 0.0000 0.0000   x coordinate   0.0000
     high-symmetry point:  0.4987 0.2884 0.0000   x coordinate   0.5761
     high-symmetry point:  0.3327 0.5763 0.0000   x coordinate   0.9084
     high-symmetry point:  0.0000 0.0000 0.0000   x coordinate   1.5739

     Plottable bands (eV) written to file hBN.bands.dat.gnu
     Bands written to file hBN.bands.dat

 **************************************************************************

                    xk=(   0.00000,   0.00000,   0.00000  )

     point group C_s (m)    
     there are  2 classes
     the character table:

       E     s    
A'     1.00  1.00
A''    1.00 -1.00

     the symmetry operations in each class and the name of the first element:

     E        1
                                                                 
     s        2
                                                                 

     Band symmetry, C_s (m)     point group:

     e(  1 -  1) =    -23.48282  eV     1   --> A'             
     e(  2 -  2) =    -23.07228  eV     1   --> A'             
     e(  3 -  3) =    -22.74199  eV     1   --> A'             
     e(  4 -  4) =    -22.72759  eV     1   --> A'             
     e(  5 -  5) =    -22.69346  eV     1   --> A'             
     e(  6 -  6) =    -22.51062  eV     1   --> A'             
     e(  7 -  7) =    -22.44702  eV     1   --> A'             
     e(  8 -  8) =    -21.67609  eV     1   --> A'             
     e(  9 -  9) =    -21.39692  eV     1   --> A'             
     e( 10 - 10) =    -21.37093  eV     1   --> A'             
     e( 11 - 11) =    -21.35955  eV     1   --> A'             
     e( 12 - 12) =    -21.21444  eV     1   --> A'             
     e( 13 - 13) =    -21.21280  eV     1   --> A'             
     e( 14 - 14) =    -21.03175  eV     1   --> A'             
     e( 15 - 15) =    -20.90051  eV     1   --> A'             
     e( 16 - 16) =    -20.89752  eV     1   --> A'             
     e( 17 - 17) =    -20.83423  eV     1   --> A'             
     e( 18 - 18) =    -20.51076  eV     1   --> A'             
     e( 19 - 19) =    -20.49722  eV     1   --> A'             
     e( 20 - 20) =    -20.13122  eV     1   --> A'             
     e( 21 - 21) =    -20.10877  eV     1   --> A'             
     e( 22 - 22) =    -20.08041  eV     1   --> A'             
     e( 23 - 23) =    -20.05111  eV     1   --> A'             
     e( 24 - 24) =    -18.70773  eV     1   --> A'             
     e( 25 - 25) =    -16.66540  eV     1   --> A'             
     e( 26 - 26) =    -14.73670  eV     1   --> A'             
     e( 27 - 27) =    -14.27006  eV     1   --> A'             
     e( 28 - 28) =    -14.25362  eV     1   --> A'             
     e( 29 - 29) =    -14.19599  eV     1   --> A'             
     e( 30 - 30) =    -14.15163  eV     1   --> A'             
     e( 31 - 31) =    -14.11447  eV     1   --> A'             
     e( 32 - 32) =    -14.00527  eV     1   --> A'             
     e( 33 - 33) =    -13.92522  eV     1   --> A'             
     e( 34 - 34) =    -13.82364  eV     1   --> A'             
     e( 35 - 35) =    -13.80972  eV     1   --> A'             
     e( 36 - 36) =    -13.66896  eV     1   --> A'             
     e( 37 - 37) =    -13.51816  eV     1   --> A'             
     e( 38 - 38) =    -12.46949  eV     1   --> A'             
     e( 39 - 39) =    -12.36644  eV     1   --> A'             
     e( 40 - 40) =    -12.33368  eV     1   --> A'             
     e( 41 - 41) =    -12.31046  eV     1   --> A'             
     e( 42 - 42) =    -12.10081  eV     1   --> A'             
     e( 43 - 43) =    -12.07372  eV     1   --> A'             
     e( 44 - 44) =    -11.96042  eV     1   --> A'             
     e( 45 - 45) =    -11.77713  eV     1   --> A'             
     e( 46 - 46) =    -11.73642  eV     1   --> A'             
     e( 47 - 47) =    -11.66452  eV     1   --> A'             
     e( 48 - 48) =    -11.58338  eV     1   --> A'             
     e( 49 - 49) =    -11.42661  eV     1   --> A'             
     e( 50 - 50) =    -11.01986  eV     1   --> A''            
     e( 51 - 51) =    -10.70992  eV     1   --> A'             
     e( 52 - 52) =    -10.63680  eV     1   --> A'             
     e( 53 - 53) =    -10.59275  eV     1   --> A'             
     e( 54 - 54) =    -10.50781  eV     1   --> A'             
     e( 55 - 55) =    -10.44172  eV     1   --> A'             
     e( 56 - 56) =    -10.35517  eV     1   --> A'             
     e( 57 - 57) =    -10.20205  eV     1   --> A''            
     e( 58 - 58) =    -10.07034  eV     1   --> A''            
     e( 59 - 59) =    -10.06009  eV     1   --> A''            
     e( 60 - 60) =    -10.04996  eV     1   --> A'             
     e( 61 - 61) =    -10.02625  eV     1   --> A''            
     e( 62 - 62) =     -9.91064  eV     1   --> A'             
     e( 63 - 63) =     -9.89102  eV     1   --> A'             
     e( 64 - 64) =     -9.87324  eV     1   --> A''            
     e( 65 - 65) =     -9.84517  eV     1   --> A'             
     e( 66 - 66) =     -9.83528  eV     1   --> A'             
     e( 67 - 67) =     -9.81846  eV     1   --> A''            
     e( 68 - 68) =     -9.80915  eV     1   --> A'             
     e( 69 - 69) =     -9.80600  eV     1   --> A'             
     e( 70 - 70) =     -9.73161  eV     1   --> A'             
     e( 71 - 71) =     -9.51299  eV     1   --> A'             
     e( 72 - 72) =     -9.49793  eV     1   --> A'             
     e( 73 - 73) =     -9.25529  eV     1   --> A'             
     e( 74 - 74) =     -9.00060  eV     1   --> A'             
     e( 75 - 75) =     -8.46899  eV     1   --> A'             
     e( 76 - 76) =     -8.44043  eV     1   --> A''            
     e( 77 - 77) =     -8.40319  eV     1   --> A'             
     e( 78 - 78) =     -8.34295  eV     1   --> A'             
     e( 79 - 79) =     -8.22966  eV     1   --> A''            
     e( 80 - 80) =     -8.21765  eV     1   --> A'             
     e( 81 - 81) =     -8.20137  eV     1   --> A''            
     e( 82 - 82) =     -8.19100  eV     1   --> A''            
     e( 83 - 83) =     -8.07055  eV     1   --> A''            
     e( 84 - 84) =     -8.03115  eV     1   --> A''            
     e( 85 - 85) =     -7.92065  eV     1   --> A'             
     e( 86 - 86) =     -7.66443  eV     1   --> A''            
     e( 87 - 87) =     -7.61543  eV     1   --> A'             
     e( 88 - 88) =     -7.52304  eV     1   --> A''            
     e( 89 - 89) =     -7.51396  eV     1   --> A''            
     e( 90 - 90) =     -7.46812  eV     1   --> A''            
     e( 91 - 91) =     -7.29209  eV     1   --> A''            
     e( 92 - 92) =     -7.11176  eV     1   --> A''            
     e( 93 - 93) =     -6.74737  eV     1   --> A'             
     e( 94 - 94) =     -6.73387  eV     1   --> A'             
     e( 95 - 95) =     -6.33327  eV     1   --> A''            
     e( 96 - 96) =     -6.30307  eV     1   --> A''            
     e( 97 - 97) =     -6.25896  eV     1   --> A''            
     e( 98 - 98) =     -6.25472  eV     1   --> A''            
     e( 99 - 99) =     -5.98554  eV     1   --> A''            
     e(100 -100) =     -4.95515  eV     1   --> A''            
     e(101 -101) =     -1.73780  eV     1   --> A''            
     e(102 -102) =     -1.14970  eV     1   --> A'             
     e(103 -103) =     -1.08086  eV     1   --> A''            
     e(104 -104) =     -1.08034  eV     1   --> A''            
     e(105 -105) =     -1.05714  eV     1   --> A''            
     e(106 -106) =     -1.01911  eV     1   --> A''            
     e(107 -107) =     -0.93144  eV     1   --> A''            
     e(108 -108) =     -0.33196  eV     1   --> A''            
     e(109 -109) =     -0.23352  eV     1   --> A''            
     e(110 -110) =     -0.08859  eV     1   --> A''            
     e(111 -111) =     -0.08378  eV     1   --> A''            
     e(112 -112) =     -0.03554  eV     1   --> A''            
     e(113 -113) =     -0.01656  eV     1   --> A''            
     e(114 -114) =      0.05345  eV     1   --> A'             
     e(115 -115) =      0.06225  eV     1   --> A'             
     e(116 -116) =      0.06670  eV     1   --> A'             
     e(117 -117) =      0.08890  eV     1   --> A''            
     e(118 -118) =      0.10297  eV     1   --> A'             
     e(119 -119) =      0.14329  eV     1   --> A'             
     e(120 -120) =      0.21329  eV     1   --> A'             
     e(121 -121) =      0.88224  eV     1   --> A''            
     e(122 -122) =      0.88913  eV     1   --> A''            
     e(123 -123) =      0.89044  eV     1   --> A''            
     e(124 -124) =      0.90581  eV     1   --> A''            
     e(125 -125) =      0.91195  eV     1   --> A''            
     e(126 -126) =      0.93111  eV     1   --> A''            
     e(127 -127) =      1.04190  eV     1   --> A''            
     e(128 -128) =      1.16180  eV     1   --> A''            
     e(129 -129) =      1.17468  eV     1   --> A'             
     e(130 -130) =      1.19407  eV     1   --> A''            
     e(131 -131) =      1.22148  eV     1   --> A''            
     e(132 -132) =      1.40632  eV     1   --> A''            
     e(133 -133) =      1.53331  eV     1   --> A''            
     e(134 -134) =      2.20281  eV     1   --> A''            
     e(135 -135) =      2.38066  eV     1   --> A'             
     e(136 -136) =      2.38849  eV     1   --> A'             
     e(137 -137) =      2.38866  eV     1   --> A'             
     e(138 -138) =      2.40313  eV     1   --> A'             
     e(139 -139) =      2.41288  eV     1   --> A'             
     e(140 -140) =      2.43948  eV     1   --> A'             
     e(141 -141) =      2.51568  eV     1   --> A'             
     e(142 -142) =      2.53110  eV     1   --> A'             
     e(143 -143) =      2.53700  eV     1   --> A'             
     e(144 -144) =      2.54339  eV     1   --> A'             
     e(145 -145) =      2.57980  eV     1   --> A'             
     e(146 -146) =      2.58880  eV     1   --> A'             
     e(147 -147) =      3.02448  eV     1   --> A''            
     e(148 -148) =      3.04145  eV     1   --> A''            
     e(149 -149) =      3.04992  eV     1   --> A''            
     e(150 -150) =      3.07702  eV     1   --> A''            
     e(151 -151) =      3.08794  eV     1   --> A'             
     e(152 -152) =      3.16556  eV     1   --> A''            
     e(153 -153) =      3.21107  eV     1   --> A'             
     e(154 -154) =      3.22346  eV     1   --> A'             
     e(155 -155) =      3.25753  eV     1   --> A'             
     e(156 -156) =      3.40538  eV     1   --> A''            
     e(157 -157) =      3.41468  eV     1   --> A'             
     e(158 -158) =      3.51313  eV     1   --> A'             
     e(159 -159) =      3.58778  eV     1   --> A''            
     e(160 -160) =      3.67766  eV     1   --> A''            
     e(161 -161) =      3.68273  eV     1   --> A''            
     e(162 -162) =      3.68908  eV     1   --> A''            
     e(163 -163) =      3.69023  eV     1   --> A''            
     e(164 -164) =      3.69639  eV     1   --> A''            
     e(165 -165) =      4.10685  eV     1   --> A'             
     e(166 -166) =      4.33894  eV     1   --> A'             
     e(167 -167) =      4.59613  eV     1   --> A'             
     e(168 -168) =      4.64933  eV     1   --> A'             
     e(169 -169) =      4.66143  eV     1   --> A'             
     e(170 -170) =      4.66743  eV     1   --> A'             
     e(171 -171) =      4.67150  eV     1   --> A''            
     e(172 -172) =      4.72166  eV     1   --> A'             
     e(173 -173) =      4.78031  eV     1   --> A'             
     e(174 -174) =      4.81579  eV     1   --> A''            
     e(175 -175) =      4.82243  eV     1   --> A''            
     e(176 -176) =      4.82616  eV     1   --> A''            
     e(177 -177) =      4.82689  eV     1   --> A''            
     e(178 -178) =      4.83321  eV     1   --> A'             
     e(179 -179) =      4.83770  eV     1   --> A''            
     e(180 -180) =      4.84765  eV     1   --> A'             
     e(181 -181) =      4.86090  eV     1   --> A'             
     e(182 -182) =      4.86224  eV     1   --> A'             
     e(183 -183) =      4.87327  eV     1   --> A'             
     e(184 -184) =      4.87787  eV     1   --> A'             
     e(185 -186) =      4.88821  eV     2   --> A'             
     e(185 -186) =      4.88821  eV     2   --> A''            
     e(187 -187) =      4.92756  eV     1   --> A''            
     e(188 -188) =      4.93029  eV     1   --> A'             
     e(189 -189) =      4.94191  eV     1   --> A'             
     e(190 -190) =      4.94516  eV     1   --> A''            
     e(191 -191) =      4.99656  eV     1   --> A''            
     e(192 -192) =      5.06016  eV     1   --> A''            
     e(193 -193) =      5.09550  eV     1   --> A''            
     e(194 -194) =      5.12154  eV     1   --> A'             
     e(195 -195) =      5.34519  eV     1   --> A'             
     e(196 -196) =      5.51411  eV     1   --> A'             
     e(197 -197) =      5.64097  eV     1   --> A'             
     e(198 -198) =      5.81705  eV     1   --> A''            
     e(199 -199) =      5.89995  eV     1   --> A'             
     e(200 -200) =      5.94288  eV     1   -->   ?

 **************************************************************************

 **************************************************************************

                    xk=(   0.04987,   0.02884,   0.00000  )

     Band symmetry, C_s (m)     point group:

     e(  1 -  1) =    -23.48135  eV     1   --> A'             
     e(  2 -  2) =    -23.07514  eV     1   --> A'             
     e(  3 -  3) =    -22.77777  eV     1   --> A'             
     e(  4 -  4) =    -22.71112  eV     1   --> A'             
     e(  5 -  5) =    -22.67646  eV     1   --> A'             
     e(  6 -  6) =    -22.50822  eV     1   --> A'             
     e(  7 -  7) =    -22.43631  eV     1   --> A'             
     e(  8 -  8) =    -21.68292  eV     1   --> A'             
     e(  9 -  9) =    -21.44688  eV     1   --> A'             
     e( 10 - 10) =    -21.38712  eV     1   --> A'             
     e( 11 - 11) =    -21.30897  eV     1   --> A'             
     e( 12 - 12) =    -21.22843  eV     1   --> A'             
     e( 13 - 13) =    -21.18626  eV     1   --> A'             
     e( 14 - 14) =    -21.03530  eV     1   --> A'             
     e( 15 - 15) =    -20.93004  eV     1   --> A'             
     e( 16 - 16) =    -20.87561  eV     1   --> A'             
     e( 17 - 17) =    -20.81841  eV     1   --> A'             
     e( 18 - 18) =    -20.51120  eV     1   --> A'             
     e( 19 - 19) =    -20.49214  eV     1   --> A'             
     e( 20 - 20) =    -20.13947  eV     1   --> A'             
     e( 21 - 21) =    -20.11100  eV     1   --> A'             
     e( 22 - 22) =    -20.07918  eV     1   --> A'             
     e( 23 - 23) =    -20.05060  eV     1   --> A'             
     e( 24 - 24) =    -18.70796  eV     1   --> A'             
     e( 25 - 25) =    -16.66600  eV     1   --> A'             
     e( 26 - 26) =    -14.73839  eV     1   --> A'             
     e( 27 - 27) =    -14.27295  eV     1   --> A'             
     e( 28 - 28) =    -14.25491  eV     1   --> A'             
     e( 29 - 29) =    -14.19540  eV     1   --> A'             
     e( 30 - 30) =    -14.14935  eV     1   --> A'             
     e( 31 - 31) =    -14.10755  eV     1   --> A'             
     e( 32 - 32) =    -14.03847  eV     1   --> A'             
     e( 33 - 33) =    -13.91954  eV     1   --> A'             
     e( 34 - 34) =    -13.86030  eV     1   --> A'             
     e( 35 - 35) =    -13.78156  eV     1   --> A'             
     e( 36 - 36) =    -13.63773  eV     1   --> A'             
     e( 37 - 37) =    -13.47474  eV     1   --> A'             
     e( 38 - 38) =    -12.52325  eV     1   --> A'             
     e( 39 - 39) =    -12.41110  eV     1   --> A'             
     e( 40 - 40) =    -12.36334  eV     1   --> A'             
     e( 41 - 41) =    -12.25508  eV     1   --> A'             
     e( 42 - 42) =    -12.12287  eV     1   --> A'             
     e( 43 - 43) =    -12.03760  eV     1   --> A'             
     e( 44 - 44) =    -11.97494  eV     1   --> A'             
     e( 45 - 45) =    -11.80831  eV     1   --> A'             
     e( 46 - 46) =    -11.74221  eV     1   --> A'             
     e( 47 - 47) =    -11.62818  eV     1   --> A'             
     e( 48 - 48) =    -11.55750  eV     1   --> A'             
     e( 49 - 49) =    -11.39220  eV     1   --> A'             
     e( 50 - 50) =    -11.01738  eV     1   --> A''            
     e( 51 - 51) =    -10.76215  eV     1   --> A'             
     e( 52 - 52) =    -10.65767  eV     1   --> A'             
     e( 53 - 53) =    -10.56273  eV     1   --> A'             
     e( 54 - 54) =    -10.52842  eV     1   --> A'             
     e( 55 - 55) =    -10.39727  eV     1   --> A'             
     e( 56 - 56) =    -10.32026  eV     1   --> A'             
     e( 57 - 57) =    -10.22268  eV     1   --> A''            
     e( 58 - 58) =    -10.11701  eV     1   --> A''            
     e( 59 - 59) =    -10.09311  eV     1   --> A'             
     e( 60 - 60) =    -10.03905  eV     1   --> A''            
     e( 61 - 61) =    -10.00565  eV     1   --> A'             
     e( 62 - 62) =     -9.99787  eV     1   --> A''            
     e( 63 - 63) =     -9.90525  eV     1   --> A'             
     e( 64 - 64) =     -9.87452  eV     1   --> A''            
     e( 65 - 65) =     -9.85594  eV     1   --> A'             
     e( 66 - 66) =     -9.82682  eV     1   --> A'             
     e( 67 - 67) =     -9.79616  eV     1   --> A'             
     e( 68 - 68) =     -9.78627  eV     1   --> A''            
     e( 69 - 69) =     -9.77036  eV     1   --> A'             
     e( 70 - 70) =     -9.68893  eV     1   --> A'             
     e( 71 - 71) =     -9.52779  eV     1   --> A'             
     e( 72 - 72) =     -9.47485  eV     1   --> A'             
     e( 73 - 73) =     -9.22425  eV     1   --> A'             
     e( 74 - 74) =     -8.99605  eV     1   --> A'             
     e( 75 - 75) =     -8.49790  eV     1   --> A'             
     e( 76 - 76) =     -8.46729  eV     1   --> A''            
     e( 77 - 77) =     -8.41030  eV     1   --> A'             
     e( 78 - 78) =     -8.32562  eV     1   --> A'             
     e( 79 - 79) =     -8.30769  eV     1   --> A''            
     e( 80 - 80) =     -8.22389  eV     1   --> A''            
     e( 81 - 81) =     -8.21914  eV     1   --> A'             
     e( 82 - 82) =     -8.12761  eV     1   --> A''            
     e( 83 - 83) =     -8.05436  eV     1   --> A''            
     e( 84 - 84) =     -7.98633  eV     1   --> A''            
     e( 85 - 85) =     -7.91739  eV     1   --> A'             
     e( 86 - 86) =     -7.69278  eV     1   --> A''            
     e( 87 - 87) =     -7.61654  eV     1   --> A'             
     e( 88 - 88) =     -7.56539  eV     1   --> A''            
     e( 89 - 89) =     -7.50005  eV     1   --> A''            
     e( 90 - 90) =     -7.43762  eV     1   --> A''            
     e( 91 - 91) =     -7.27554  eV     1   --> A''            
     e( 92 - 92) =     -7.09540  eV     1   --> A''            
     e( 93 - 93) =     -6.75141  eV     1   --> A'             
     e( 94 - 94) =     -6.73815  eV     1   --> A'             
     e( 95 - 95) =     -6.35084  eV     1   --> A''            
     e( 96 - 96) =     -6.30350  eV     1   --> A''            
     e( 97 - 97) =     -6.27300  eV     1   --> A''            
     e( 98 - 98) =     -6.24334  eV     1   --> A''            
     e( 99 - 99) =     -5.98390  eV     1   --> A''            
     e(100 -100) =     -4.95715  eV     1   --> A''            
     e(101 -101) =     -1.73460  eV     1   --> A''            
     e(102 -102) =     -1.14643  eV     1   --> A'             
     e(103 -103) =     -1.07924  eV     1   --> A''            
     e(104 -104) =     -1.07286  eV     1   --> A''            
     e(105 -105) =     -1.05405  eV     1   --> A''            
     e(106 -106) =     -1.01559  eV     1   --> A''            
     e(107 -107) =     -0.92707  eV     1   --> A''            
     e(108 -108) =     -0.36114  eV     1   --> A''            
     e(109 -109) =     -0.24434  eV     1   --> A''            
     e(110 -110) =     -0.19380  eV     1   --> A''            
     e(111 -111) =     -0.11450  eV     1   --> A''            
     e(112 -112) =     -0.03926  eV     1   --> A'             
     e(113 -113) =      0.01749  eV     1   --> A''            
     e(114 -114) =      0.02745  eV     1   --> A'             
     e(115 -115) =      0.04510  eV     1   --> A''            
     e(116 -116) =      0.07477  eV     1   --> A'             
     e(117 -117) =      0.14986  eV     1   --> A'             
     e(118 -118) =      0.16280  eV     1   --> A''            
     e(119 -119) =      0.17144  eV     1   --> A'             
     e(120 -120) =      0.27572  eV     1   --> A'             
     e(121 -121) =      0.79477  eV     1   --> A''            
     e(122 -122) =      0.84560  eV     1   --> A''            
     e(123 -123) =      0.86556  eV     1   --> A''            
     e(124 -124) =      0.92373  eV     1   --> A''            
     e(125 -125) =      0.95738  eV     1   --> A''            
     e(126 -126) =      0.98291  eV     1   --> A''            
     e(127 -127) =      1.02539  eV     1   --> A''            
     e(128 -128) =      1.11340  eV     1   --> A''            
     e(129 -129) =      1.17794  eV     1   --> A'             
     e(130 -130) =      1.18344  eV     1   --> A''            
     e(131 -131) =      1.28310  eV     1   --> A''            
     e(132 -132) =      1.41789  eV     1   --> A''            
     e(133 -133) =      1.56878  eV     1   --> A''            
     e(134 -134) =      2.20561  eV     1   --> A''            
     e(135 -135) =      2.27902  eV     1   --> A'             
     e(136 -136) =      2.33411  eV     1   --> A'             
     e(137 -137) =      2.34091  eV     1   --> A'             
     e(138 -138) =      2.35776  eV     1   --> A'             
     e(139 -139) =      2.40190  eV     1   --> A'             
     e(140 -140) =      2.45727  eV     1   --> A'             
     e(141 -141) =      2.47274  eV     1   --> A'             
     e(142 -142) =      2.51960  eV     1   --> A'             
     e(143 -143) =      2.54943  eV     1   --> A'             
     e(144 -144) =      2.57437  eV     1   --> A'             
     e(145 -145) =      2.71301  eV     1   --> A'             
     e(146 -146) =      2.73917  eV     1   --> A'             
     e(147 -147) =      3.00068  eV     1   --> A''            
     e(148 -148) =      3.02302  eV     1   --> A''            
     e(149 -149) =      3.05139  eV     1   --> A'             
     e(150 -150) =      3.06382  eV     1   --> A''            
     e(151 -151) =      3.08801  eV     1   --> A''            
     e(152 -152) =      3.16538  eV     1   --> A''            
     e(153 -153) =      3.18908  eV     1   --> A'             
     e(154 -154) =      3.20605  eV     1   --> A'             
     e(155 -155) =      3.27315  eV     1   --> A'             
     e(156 -156) =      3.40636  eV     1   --> A''            
     e(157 -157) =      3.42618  eV     1   --> A'             
     e(158 -158) =      3.49547  eV     1   --> A''            
     e(159 -159) =      3.53933  eV     1   --> A''            
     e(160 -160) =      3.55055  eV     1   --> A'             
     e(161 -161) =      3.65478  eV     1   --> A''            
     e(162 -162) =      3.69015  eV     1   --> A''            
     e(163 -163) =      3.82408  eV     1   --> A''            
     e(164 -164) =      3.84955  eV     1   --> A''            
     e(165 -165) =      4.10821  eV     1   --> A'             
     e(166 -166) =      4.34184  eV     1   --> A'             
     e(167 -167) =      4.57001  eV     1   --> A''            
     e(168 -168) =      4.57795  eV     1   --> A'             
     e(169 -169) =      4.62455  eV     1   --> A'             
     e(170 -170) =      4.65380  eV     1   --> A'             
     e(171 -171) =      4.66406  eV     1   --> A''            
     e(172 -172) =      4.67257  eV     1   --> A'             
     e(173 -173) =      4.68909  eV     1   --> A'             
     e(174 -174) =      4.71353  eV     1   --> A''            
     e(175 -175) =      4.71915  eV     1   --> A'             
     e(176 -176) =      4.77309  eV     1   --> A'             
     e(177 -177) =      4.80494  eV     1   --> A''            
     e(178 -178) =      4.81684  eV     1   --> A'             
     e(179 -179) =      4.85259  eV     1   --> A'             
     e(180 -180) =      4.86668  eV     1   --> A'             
     e(181 -181) =      4.87681  eV     1   --> A'             
     e(182 -182) =      4.88202  eV     1   --> A''            
     e(183 -183) =      4.91856  eV     1   --> A'             
     e(184 -184) =      4.92225  eV     1   --> A''            
     e(185 -185) =      4.93259  eV     1   --> A'             
     e(186 -186) =      4.94083  eV     1   --> A''            
     e(187 -187) =      4.97205  eV     1   --> A''            
     e(188 -188) =      5.00964  eV     1   --> A''            
     e(189 -189) =      5.02508  eV     1   --> A''            
     e(190 -190) =      5.03328  eV     1   --> A'             
     e(191 -191) =      5.04493  eV     1   --> A'             
     e(192 -192) =      5.09252  eV     1   --> A''            
     e(193 -193) =      5.14200  eV     1   --> A'             
     e(194 -194) =      5.14410  eV     1   --> A''            
     e(195 -195) =      5.35016  eV     1   --> A'             
     e(196 -196) =      5.51701  eV     1   --> A'             
     e(197 -197) =      5.63970  eV     1   --> A'             
     e(198 -198) =      5.80664  eV     1   --> A''            
     e(199 -199) =      5.85739  eV     1   --> A'             
     e(200 -200) =      5.91238  eV     1   -->   ?

 **************************************************************************

 **************************************************************************

                    xk=(   0.09974,   0.05767,   0.00000  )

     Band symmetry, C_s (m)     point group:

     e(  1 -  1) =    -23.47696  eV     1   --> A'             
     e(  2 -  2) =    -23.08359  eV     1   --> A'             
     e(  3 -  3) =    -22.82066  eV     1   --> A'             
     e(  4 -  4) =    -22.71206  eV     1   --> A'             
     e(  5 -  5) =    -22.64023  eV     1   --> A'             
     e(  6 -  6) =    -22.49629  eV     1   --> A'             
     e(  7 -  7) =    -22.40855  eV     1   --> A'             
     e(  8 -  8) =    -21.70281  eV     1   --> A'             
     e(  9 -  9) =    -21.51893  eV     1   --> A'             
     e( 10 - 10) =    -21.40315  eV     1   --> A'             
     e( 11 - 11) =    -21.27662  eV     1   --> A'             
     e( 12 - 12) =    -21.22551  eV     1   --> A'             
     e( 13 - 13) =    -21.14609  eV     1   --> A'             
     e( 14 - 14) =    -21.05090  eV     1   --> A'             
     e( 15 - 15) =    -20.93984  eV     1   --> A'             
     e( 16 - 16) =    -20.87098  eV     1   --> A'             
     e( 17 - 17) =    -20.78003  eV     1   --> A'             
     e( 18 - 18) =    -20.50924  eV     1   --> A'             
     e( 19 - 19) =    -20.48085  eV     1   --> A'             
     e( 20 - 20) =    -20.15861  eV     1   --> A'             
     e( 21 - 21) =    -20.12254  eV     1   --> A'             
     e( 22 - 22) =    -20.07546  eV     1   --> A'             
     e( 23 - 23) =    -20.04960  eV     1   --> A'             
     e( 24 - 24) =    -18.70863  eV     1   --> A'             
     e( 25 - 25) =    -16.66770  eV     1   --> A'             
     e( 26 - 26) =    -14.74360  eV     1   --> A'             
     e( 27 - 27) =    -14.28607  eV     1   --> A'             
     e( 28 - 28) =    -14.25546  eV     1   --> A'             
     e( 29 - 29) =    -14.19755  eV     1   --> A'             
     e( 30 - 30) =    -14.15107  eV     1   --> A'             
     e( 31 - 31) =    -14.10818  eV     1   --> A'             
     e( 32 - 32) =    -14.06143  eV     1   --> A'             
     e( 33 - 33) =    -13.94251  eV     1   --> A'             
     e( 34 - 34) =    -13.88931  eV     1   --> A'             
     e( 35 - 35) =    -13.73010  eV     1   --> A'             
     e( 36 - 36) =    -13.57038  eV     1   --> A'             
     e( 37 - 37) =    -13.36867  eV     1   --> A'             
     e( 38 - 38) =    -12.63542  eV     1   --> A'             
     e( 39 - 39) =    -12.47309  eV     1   --> A'             
     e( 40 - 40) =    -12.43183  eV     1   --> A'             
     e( 41 - 41) =    -12.23958  eV     1   --> A'             
     e( 42 - 42) =    -12.12166  eV     1   --> A'             
     e( 43 - 43) =    -12.06815  eV     1   --> A'             
     e( 44 - 44) =    -11.92941  eV     1   --> A'             
     e( 45 - 45) =    -11.84812  eV     1   --> A'             
     e( 46 - 46) =    -11.73390  eV     1   --> A'             
     e( 47 - 47) =    -11.59398  eV     1   --> A'             
     e( 48 - 48) =    -11.46998  eV     1   --> A'             
     e( 49 - 49) =    -11.31047  eV     1   --> A'             
     e( 50 - 50) =    -11.00995  eV     1   --> A''            
     e( 51 - 51) =    -10.85399  eV     1   --> A'             
     e( 52 - 52) =    -10.71667  eV     1   --> A'             
     e( 53 - 53) =    -10.53553  eV     1   --> A'             
     e( 54 - 54) =    -10.52151  eV     1   --> A'             
     e( 55 - 55) =    -10.31437  eV     1   --> A'             
     e( 56 - 56) =    -10.28642  eV     1   --> A'             
     e( 57 - 57) =    -10.27406  eV     1   --> A''            
     e( 58 - 58) =    -10.19248  eV     1   --> A'             
     e( 59 - 59) =    -10.16168  eV     1   --> A''            
     e( 60 - 60) =    -10.05894  eV     1   --> A'             
     e( 61 - 61) =    -10.04816  eV     1   --> A''            
     e( 62 - 62) =     -9.97876  eV     1   --> A'             
     e( 63 - 63) =     -9.94642  eV     1   --> A''            
     e( 64 - 64) =     -9.87805  eV     1   --> A'             
     e( 65 - 65) =     -9.84753  eV     1   --> A''            
     e( 66 - 66) =     -9.83921  eV     1   --> A'             
     e( 67 - 67) =     -9.79642  eV     1   --> A'             
     e( 68 - 68) =     -9.74119  eV     1   --> A'             
     e( 69 - 69) =     -9.72061  eV     1   --> A''            
     e( 70 - 70) =     -9.60940  eV     1   --> A'             
     e( 71 - 71) =     -9.52181  eV     1   --> A'             
     e( 72 - 72) =     -9.43577  eV     1   --> A'             
     e( 73 - 73) =     -9.14767  eV     1   --> A'             
     e( 74 - 74) =     -8.97824  eV     1   --> A'             
     e( 75 - 75) =     -8.55682  eV     1   --> A'             
     e( 76 - 76) =     -8.53638  eV     1   --> A''            
     e( 77 - 77) =     -8.43845  eV     1   --> A'             
     e( 78 - 78) =     -8.41452  eV     1   --> A''            
     e( 79 - 79) =     -8.29323  eV     1   --> A'             
     e( 80 - 80) =     -8.23383  eV     1   --> A''            
     e( 81 - 81) =     -8.22429  eV     1   --> A'             
     e( 82 - 82) =     -8.11302  eV     1   --> A''            
     e( 83 - 83) =     -7.98525  eV     1   --> A''            
     e( 84 - 84) =     -7.90794  eV     1   --> A'             
     e( 85 - 85) =     -7.90382  eV     1   --> A''            
     e( 86 - 86) =     -7.75378  eV     1   --> A''            
     e( 87 - 87) =     -7.61961  eV     1   --> A'             
     e( 88 - 88) =     -7.59674  eV     1   --> A''            
     e( 89 - 89) =     -7.52525  eV     1   --> A''            
     e( 90 - 90) =     -7.37430  eV     1   --> A''            
     e( 91 - 91) =     -7.23351  eV     1   --> A''            
     e( 92 - 92) =     -7.05303  eV     1   --> A''            
     e( 93 - 93) =     -6.76558  eV     1   --> A'             
     e( 94 - 94) =     -6.74850  eV     1   --> A'             
     e( 95 - 95) =     -6.38613  eV     1   --> A''            
     e( 96 - 96) =     -6.32971  eV     1   --> A''            
     e( 97 - 97) =     -6.27850  eV     1   --> A''            
     e( 98 - 98) =     -6.23800  eV     1   --> A''            
     e( 99 - 99) =     -5.97888  eV     1   --> A''            
     e(100 -100) =     -4.96282  eV     1   --> A''            
     e(101 -101) =     -1.72559  eV     1   --> A''            
     e(102 -102) =     -1.13660  eV     1   --> A'             
     e(103 -103) =     -1.07346  eV     1   --> A''            
     e(104 -104) =     -1.05670  eV     1   --> A''            
     e(105 -105) =     -1.04108  eV     1   --> A''            
     e(106 -106) =     -1.00489  eV     1   --> A''            
     e(107 -107) =     -0.91288  eV     1   --> A''            
     e(108 -108) =     -0.45053  eV     1   --> A''            
     e(109 -109) =     -0.29772  eV     1   --> A''            
     e(110 -110) =     -0.23940  eV     1   --> A''            
     e(111 -111) =     -0.19123  eV     1   --> A''            
     e(112 -112) =     -0.14283  eV     1   --> A'             
     e(113 -113) =     -0.02147  eV     1   --> A'             
     e(114 -114) =      0.02469  eV     1   --> A'             
     e(115 -115) =      0.08972  eV     1   --> A''            
     e(116 -116) =      0.12792  eV     1   --> A''            
     e(117 -117) =      0.22253  eV     1   --> A'             
     e(118 -118) =      0.24475  eV     1   --> A'             
     e(119 -119) =      0.30892  eV     1   --> A''            
     e(120 -120) =      0.38642  eV     1   --> A'             
     e(121 -121) =      0.69758  eV     1   --> A''            
     e(122 -122) =      0.79238  eV     1   --> A''            
     e(123 -123) =      0.81746  eV     1   --> A''            
     e(124 -124) =      0.85993  eV     1   --> A''            
     e(125 -125) =      0.94751  eV     1   --> A''            
     e(126 -126) =      1.02068  eV     1   --> A''            
     e(127 -127) =      1.04593  eV     1   --> A''            
     e(128 -128) =      1.12679  eV     1   --> A''            
     e(129 -129) =      1.18382  eV     1   --> A''            
     e(130 -130) =      1.18771  eV     1   --> A'             
     e(131 -131) =      1.32722  eV     1   --> A''            
     e(132 -132) =      1.47535  eV     1   --> A''            
     e(133 -133) =      1.64515  eV     1   --> A''            
     e(134 -134) =      2.15799  eV     1   --> A'             
     e(135 -135) =      2.18063  eV     1   --> A'             
     e(136 -136) =      2.21399  eV     1   --> A''            
     e(137 -137) =      2.21571  eV     1   --> A'             
     e(138 -138) =      2.29183  eV     1   --> A'             
     e(139 -139) =      2.32358  eV     1   --> A'             
     e(140 -140) =      2.51726  eV     1   --> A'             
     e(141 -141) =      2.52583  eV     1   --> A'             
     e(142 -142) =      2.56122  eV     1   --> A'             
     e(143 -143) =      2.57595  eV     1   --> A'             
     e(144 -144) =      2.66644  eV     1   --> A'             
     e(145 -145) =      2.88901  eV     1   --> A'             
     e(146 -146) =      2.90643  eV     1   --> A'             
     e(147 -147) =      2.95197  eV     1   --> A''            
     e(148 -148) =      2.97135  eV     1   --> A'             
     e(149 -149) =      3.00283  eV     1   --> A''            
     e(150 -150) =      3.06510  eV     1   --> A''            
     e(151 -151) =      3.10480  eV     1   --> A''            
     e(152 -152) =      3.14480  eV     1   --> A'             
     e(153 -154) =      3.16497  eV     2   --> A'             
     e(153 -154) =      3.16497  eV     2   --> A''            
     e(155 -155) =      3.31108  eV     1   --> A'             
     e(156 -156) =      3.35199  eV     1   --> A''            
     e(157 -157) =      3.40248  eV     1   --> A''            
     e(158 -158) =      3.42662  eV     1   --> A''            
     e(159 -159) =      3.47151  eV     1   --> A'             
     e(160 -160) =      3.61942  eV     1   --> A'             
     e(161 -161) =      3.66118  eV     1   --> A''            
     e(162 -162) =      3.69798  eV     1   --> A''            
     e(163 -163) =      3.98974  eV     1   --> A''            
     e(164 -164) =      4.01897  eV     1   --> A''            
     e(165 -165) =      4.11191  eV     1   --> A'             
     e(166 -166) =      4.35039  eV     1   --> A'             
     e(167 -167) =      4.36262  eV     1   --> A''            
     e(168 -168) =      4.49881  eV     1   --> A'             
     e(169 -169) =      4.51820  eV     1   --> A'             
     e(170 -170) =      4.56467  eV     1   --> A''            
     e(171 -171) =      4.56950  eV     1   --> A'             
     e(172 -172) =      4.60368  eV     1   --> A'             
     e(173 -173) =      4.60671  eV     1   --> A''            
     e(174 -174) =      4.67977  eV     1   --> A'             
     e(175 -175) =      4.74823  eV     1   --> A'             
     e(176 -176) =      4.76593  eV     1   --> A''            
     e(177 -177) =      4.83058  eV     1   --> A'             
     e(178 -178) =      4.84300  eV     1   --> A''            
     e(179 -179) =      4.85605  eV     1   --> A'             
     e(180 -180) =      4.87515  eV     1   --> A'             
     e(181 -181) =      4.87818  eV     1   --> A'             
     e(182 -182) =      4.89680  eV     1   --> A'             
     e(183 -183) =      4.91031  eV     1   --> A''            
     e(184 -184) =      4.93546  eV     1   --> A'             
     e(185 -185) =      4.95788  eV     1   --> A'             
     e(186 -186) =      5.02217  eV     1   --> A''            
     e(187 -187) =      5.05195  eV     1   --> A''            
     e(188 -188) =      5.07394  eV     1   --> A''            
     e(189 -189) =      5.09498  eV     1   --> A''            
     e(190 -190) =      5.10331  eV     1   --> A'             
     e(191 -191) =      5.21066  eV     1   --> A''            
     e(192 -192) =      5.21693  eV     1   --> A'             
     e(193 -193) =      5.25227  eV     1   --> A'             
     e(194 -194) =      5.31804  eV     1   --> A''            
     e(195 -195) =      5.37275  eV     1   --> A'             
     e(196 -196) =      5.52339  eV     1   --> A'             
     e(197 -197) =      5.63329  eV     1   --> A'             
     e(198 -198) =      5.73987  eV     1   --> A''            
     e(199 -199) =      5.77985  eV     1   -->   ?
     e(200 -200) =      5.78084  eV     1   -->   ?

 **************************************************************************

 **************************************************************************

                    xk=(   0.14962,   0.08651,   0.00000  )

     Band symmetry, C_s (m)     point group:

     e(  1 -  1) =    -23.46976  eV     1   --> A'             
     e(  2 -  2) =    -23.09722  eV     1   --> A'             
     e(  3 -  3) =    -22.86078  eV     1   --> A'             
     e(  4 -  4) =    -22.71872  eV     1   --> A'             
     e(  5 -  5) =    -22.60601  eV     1   --> A'             
     e(  6 -  6) =    -22.47017  eV     1   --> A'             
     e(  7 -  7) =    -22.36969  eV     1   --> A'             
     e(  8 -  8) =    -21.73381  eV     1   --> A'             
     e(  9 -  9) =    -21.59180  eV     1   --> A'             
     e( 10 - 10) =    -21.42475  eV     1   --> A'             
     e( 11 - 11) =    -21.27010  eV     1   --> A'             
     e( 12 - 12) =    -21.22261  eV     1   --> A'             
     e( 13 - 13) =    -21.09838  eV     1   --> A'             
     e( 14 - 14) =    -21.06817  eV     1   --> A'             
     e( 15 - 15) =    -20.91891  eV     1   --> A'             
     e( 16 - 16) =    -20.87216  eV     1   --> A'             
     e( 17 - 17) =    -20.73714  eV     1   --> A'             
     e( 18 - 18) =    -20.50302  eV     1   --> A'             
     e( 19 - 19) =    -20.46722  eV     1   --> A'             
     e( 20 - 20) =    -20.18417  eV     1   --> A'             
     e( 21 - 21) =    -20.14384  eV     1   --> A'             
     e( 22 - 22) =    -20.07194  eV     1   --> A'             
     e( 23 - 23) =    -20.04859  eV     1   --> A'             
     e( 24 - 24) =    -18.70966  eV     1   --> A'             
     e( 25 - 25) =    -16.67028  eV     1   --> A'             
     e( 26 - 26) =    -14.75267  eV     1   --> A'             
     e( 27 - 27) =    -14.30726  eV     1   --> A'             
     e( 28 - 28) =    -14.27543  eV     1   --> A'             
     e( 29 - 29) =    -14.21958  eV     1   --> A'             
     e( 30 - 30) =    -14.14446  eV     1   --> A'             
     e( 31 - 31) =    -14.09911  eV     1   --> A'             
     e( 32 - 32) =    -14.06487  eV     1   --> A'             
     e( 33 - 33) =    -13.94678  eV     1   --> A'             
     e( 34 - 34) =    -13.90591  eV     1   --> A'             
     e( 35 - 35) =    -13.65747  eV     1   --> A'             
     e( 36 - 36) =    -13.49241  eV     1   --> A'             
     e( 37 - 37) =    -13.23110  eV     1   --> A'             
     e( 38 - 38) =    -12.75897  eV     1   --> A'             
     e( 39 - 39) =    -12.58227  eV     1   --> A'             
     e( 40 - 40) =    -12.48176  eV     1   --> A'             
     e( 41 - 41) =    -12.29051  eV     1   --> A'             
     e( 42 - 42) =    -12.20556  eV     1   --> A'             
     e( 43 - 43) =    -12.05945  eV     1   --> A'             
     e( 44 - 44) =    -11.90411  eV     1   --> A'             
     e( 45 - 45) =    -11.80464  eV     1   --> A'             
     e( 46 - 46) =    -11.69723  eV     1   --> A'             
     e( 47 - 47) =    -11.56812  eV     1   --> A'             
     e( 48 - 48) =    -11.35278  eV     1   --> A'             
     e( 49 - 49) =    -11.21132  eV     1   --> A'             
     e( 50 - 50) =    -10.99758  eV     1   --> A''            
     e( 51 - 51) =    -10.94927  eV     1   --> A'             
     e( 52 - 52) =    -10.79083  eV     1   --> A'             
     e( 53 - 53) =    -10.54245  eV     1   --> A'             
     e( 54 - 54) =    -10.48159  eV     1   --> A'             
     e( 55 - 55) =    -10.42068  eV     1   --> A'             
     e( 56 - 56) =    -10.33921  eV     1   --> A''            
     e( 57 - 57) =    -10.20347  eV     1   --> A'             
     e( 58 - 58) =    -10.19845  eV     1   --> A''            
     e( 59 - 59) =    -10.17744  eV     1   --> A'             
     e( 60 - 60) =    -10.09452  eV     1   --> A'             
     e( 61 - 61) =    -10.07133  eV     1   --> A''            
     e( 62 - 62) =    -10.03072  eV     1   --> A'             
     e( 63 - 63) =     -9.90869  eV     1   --> A'             
     e( 64 - 64) =     -9.89176  eV     1   --> A''            
     e( 65 - 65) =     -9.85932  eV     1   --> A'             
     e( 66 - 66) =     -9.82551  eV     1   --> A'             
     e( 67 - 67) =     -9.79396  eV     1   --> A''            
     e( 68 - 68) =     -9.71716  eV     1   --> A'             
     e( 69 - 69) =     -9.63921  eV     1   --> A''            
     e( 70 - 70) =     -9.59320  eV     1   --> A'             
     e( 71 - 71) =     -9.45632  eV     1   --> A'             
     e( 72 - 72) =     -9.38684  eV     1   --> A'             
     e( 73 - 73) =     -9.06589  eV     1   --> A'             
     e( 74 - 74) =     -8.92772  eV     1   --> A'             
     e( 75 - 75) =     -8.62671  eV     1   --> A''            
     e( 76 - 76) =     -8.62610  eV     1   --> A'             
     e( 77 - 77) =     -8.52301  eV     1   --> A''            
     e( 78 - 78) =     -8.48401  eV     1   --> A'             
     e( 79 - 79) =     -8.26652  eV     1   --> A'             
     e( 80 - 80) =     -8.23982  eV     1   --> A''            
     e( 81 - 81) =     -8.23305  eV     1   --> A'             
     e( 82 - 82) =     -8.10595  eV     1   --> A''            
     e( 83 - 83) =     -7.96387  eV     1   --> A''            
     e( 84 - 84) =     -7.89367  eV     1   --> A'             
     e( 85 - 85) =     -7.82140  eV     1   --> A''            
     e( 86 - 86) =     -7.78141  eV     1   --> A''            
     e( 87 - 87) =     -7.62387  eV     1   --> A'             
     e( 88 - 88) =     -7.60503  eV     1   --> A''            
     e( 89 - 89) =     -7.55484  eV     1   --> A''            
     e( 90 - 90) =     -7.30925  eV     1   --> A''            
     e( 91 - 91) =     -7.17846  eV     1   --> A''            
     e( 92 - 92) =     -6.99758  eV     1   --> A''            
     e( 93 - 93) =     -6.79171  eV     1   --> A'             
     e( 94 - 94) =     -6.76178  eV     1   --> A'             
     e( 95 - 95) =     -6.43035  eV     1   --> A''            
     e( 96 - 96) =     -6.37290  eV     1   --> A''            
     e( 97 - 97) =     -6.29307  eV     1   --> A''            
     e( 98 - 98) =     -6.23709  eV     1   --> A''            
     e( 99 - 99) =     -5.97061  eV     1   --> A''            
     e(100 -100) =     -4.97131  eV     1   --> A''            
     e(101 -101) =     -1.71236  eV     1   --> A''            
     e(102 -102) =     -1.12027  eV     1   --> A'             
     e(103 -103) =     -1.06535  eV     1   --> A''            
     e(104 -104) =     -1.04382  eV     1   --> A''            
     e(105 -105) =     -1.00849  eV     1   --> A''            
     e(106 -106) =     -0.98733  eV     1   --> A''            
     e(107 -107) =     -0.88593  eV     1   --> A''            
     e(108 -108) =     -0.56646  eV     1   --> A''            
     e(109 -109) =     -0.36851  eV     1   --> A''            
     e(110 -110) =     -0.28918  eV     1   --> A''            
     e(111 -111) =     -0.24518  eV     1   --> A'             
     e(112 -112) =     -0.21429  eV     1   --> A''            
     e(113 -113) =     -0.06564  eV     1   --> A'             
     e(114 -114) =     -0.02187  eV     1   --> A'             
     e(115 -115) =      0.15811  eV     1   --> A''            
     e(116 -116) =      0.21569  eV     1   --> A''            
     e(117 -117) =      0.29896  eV     1   --> A'             
     e(118 -118) =      0.32488  eV     1   --> A'             
     e(119 -119) =      0.45998  eV     1   --> A''            
     e(120 -120) =      0.51301  eV     1   --> A'             
     e(121 -121) =      0.60431  eV     1   --> A''            
     e(122 -122) =      0.71544  eV     1   --> A''            
     e(123 -123) =      0.76448  eV     1   --> A''            
     e(124 -124) =      0.79388  eV     1   --> A''            
     e(125 -125) =      0.84272  eV     1   --> A''            
     e(126 -126) =      1.07788  eV     1   --> A''            
     e(127 -127) =      1.09293  eV     1   --> A''            
     e(128 -128) =      1.16160  eV     1   --> A''            
     e(129 -129) =      1.19921  eV     1   --> A''            
     e(130 -130) =      1.20399  eV     1   --> A'             
     e(131 -131) =      1.37199  eV     1   --> A''            
     e(132 -132) =      1.55796  eV     1   --> A''            
     e(133 -133) =      1.72900  eV     1   --> A''            
     e(134 -134) =      2.01022  eV     1   --> A'             
     e(135 -135) =      2.02453  eV     1   --> A'             
     e(136 -136) =      2.08958  eV     1   --> A'             
     e(137 -137) =      2.22781  eV     1   --> A''            
     e(138 -138) =      2.24791  eV     1   --> A'             
     e(139 -139) =      2.27546  eV     1   --> A'             
     e(140 -140) =      2.54681  eV     1   --> A'             
     e(141 -141) =      2.56135  eV     1   --> A'             
     e(142 -142) =      2.61167  eV     1   --> A'             
     e(143 -143) =      2.63616  eV     1   --> A'             
     e(144 -144) =      2.78777  eV     1   --> A'             
     e(145 -145) =      2.80859  eV     1   --> A'             
     e(146 -146) =      2.89466  eV     1   --> A''            
     e(147 -147) =      2.98127  eV     1   --> A''            
     e(148 -148) =      3.05494  eV     1   --> A''            
     e(149 -149) =      3.06597  eV     1   --> A'             
     e(150 -150) =      3.09431  eV     1   --> A'             
     e(151 -151) =      3.11037  eV     1   --> A'             
     e(152 -152) =      3.11253  eV     1   --> A''            
     e(153 -153) =      3.14364  eV     1   --> A'             
     e(154 -154) =      3.15949  eV     1   --> A''            
     e(155 -155) =      3.24306  eV     1   --> A''            
     e(156 -156) =      3.28350  eV     1   --> A''            
     e(157 -157) =      3.35845  eV     1   --> A'             
     e(158 -158) =      3.42523  eV     1   --> A''            
     e(159 -159) =      3.53952  eV     1   --> A'             
     e(160 -160) =      3.67503  eV     1   --> A''            
     e(161 -161) =      3.68972  eV     1   --> A'             
     e(162 -162) =      3.71111  eV     1   --> A''            
     e(163 -163) =      4.11657  eV     1   --> A'             
     e(164 -164) =      4.13454  eV     1   --> A''            
     e(165 -165) =      4.18104  eV     1   --> A''            
     e(166 -166) =      4.19671  eV     1   --> A''            
     e(167 -167) =      4.33410  eV     1   --> A'             
     e(168 -168) =      4.35886  eV     1   --> A'             
     e(169 -169) =      4.37208  eV     1   --> A'             
     e(170 -170) =      4.47080  eV     1   --> A''            
     e(171 -171) =      4.50530  eV     1   --> A''            
     e(172 -172) =      4.54468  eV     1   --> A'             
     e(173 -173) =      4.58772  eV     1   --> A'             
     e(174 -174) =      4.69862  eV     1   --> A'             
     e(175 -175) =      4.73337  eV     1   --> A''            
     e(176 -176) =      4.79887  eV     1   --> A'             
     e(177 -177) =      4.81224  eV     1   --> A''            
     e(178 -178) =      4.86447  eV     1   --> A'             
     e(179 -179) =      4.87611  eV     1   --> A''            
     e(180 -180) =      4.88129  eV     1   --> A'             
     e(181 -181) =      4.90061  eV     1   --> A'             
     e(182 -182) =      4.90985  eV     1   --> A'             
     e(183 -183) =      4.94119  eV     1   --> A'             
     e(184 -184) =      4.96965  eV     1   --> A'             
     e(185 -185) =      5.02455  eV     1   --> A'             
     e(186 -186) =      5.06698  eV     1   --> A''            
     e(187 -187) =      5.09743  eV     1   --> A''            
     e(188 -188) =      5.15785  eV     1   --> A'             
     e(189 -189) =      5.18967  eV     1   --> A''            
     e(190 -190) =      5.21056  eV     1   --> A''            
     e(191 -191) =      5.29611  eV     1   --> A''            
     e(192 -192) =      5.30965  eV     1   --> A'             
     e(193 -193) =      5.42224  eV     1   --> A'             
     e(194 -194) =      5.44823  eV     1   --> A'             
     e(195 -195) =      5.53496  eV     1   --> A'             
     e(196 -196) =      5.55651  eV     1   --> A''            
     e(197 -197) =      5.59709  eV     1   --> A'             
     e(198 -198) =      5.62302  eV     1   --> A''            
     e(199 -199) =      5.64349  eV     1   --> A''            
     e(200 -200) =      5.67799  eV     1   --> A'             

 **************************************************************************

 **************************************************************************

                    xk=(   0.19949,   0.11535,   0.00000  )

     Band symmetry, C_s (m)     point group:

     e(  1 -  1) =    -23.45991  eV     1   --> A'             
     e(  2 -  2) =    -23.11540  eV     1   --> A'             
     e(  3 -  3) =    -22.89618  eV     1   --> A'             
     e(  4 -  4) =    -22.72807  eV     1   --> A'             
     e(  5 -  5) =    -22.57478  eV     1   --> A'             
     e(  6 -  6) =    -22.43192  eV     1   --> A'             
     e(  7 -  7) =    -22.32325  eV     1   --> A'             
     e(  8 -  8) =    -21.77268  eV     1   --> A'             
     e(  9 -  9) =    -21.66352  eV     1   --> A'             
     e( 10 - 10) =    -21.45170  eV     1   --> A'             
     e( 11 - 11) =    -21.26968  eV     1   --> A'             
     e( 12 - 12) =    -21.23465  eV     1   --> A'             
     e( 13 - 13) =    -21.10975  eV     1   --> A'             
     e( 14 - 14) =    -21.01901  eV     1   --> A'             
     e( 15 - 15) =    -20.88019  eV     1   --> A'             
     e( 16 - 16) =    -20.86892  eV     1   --> A'             
     e( 17 - 17) =    -20.69594  eV     1   --> A'             
     e( 18 - 18) =    -20.49314  eV     1   --> A'             
     e( 19 - 19) =    -20.45366  eV     1   --> A'             
     e( 20 - 20) =    -20.21493  eV     1   --> A'             
     e( 21 - 21) =    -20.17295  eV     1   --> A'             
     e( 22 - 22) =    -20.07051  eV     1   --> A'             
     e( 23 - 23) =    -20.04748  eV     1   --> A'             
     e( 24 - 24) =    -18.71095  eV     1   --> A'             
     e( 25 - 25) =    -16.67339  eV     1   --> A'             
     e( 26 - 26) =    -14.76588  eV     1   --> A'             
     e( 27 - 27) =    -14.34595  eV     1   --> A'             
     e( 28 - 28) =    -14.31851  eV     1   --> A'             
     e( 29 - 29) =    -14.22693  eV     1   --> A'             
     e( 30 - 30) =    -14.11842  eV     1   --> A'             
     e( 31 - 31) =    -14.11139  eV     1   --> A'             
     e( 32 - 32) =    -14.04452  eV     1   --> A'             
     e( 33 - 33) =    -13.93662  eV     1   --> A'             
     e( 34 - 34) =    -13.88109  eV     1   --> A'             
     e( 35 - 35) =    -13.57670  eV     1   --> A'             
     e( 36 - 36) =    -13.41047  eV     1   --> A'             
     e( 37 - 37) =    -13.08220  eV     1   --> A'             
     e( 38 - 38) =    -12.88006  eV     1   --> A'             
     e( 39 - 39) =    -12.70167  eV     1   --> A'             
     e( 40 - 40) =    -12.53980  eV     1   --> A'             
     e( 41 - 41) =    -12.37189  eV     1   --> A'             
     e( 42 - 42) =    -12.28999  eV     1   --> A'             
     e( 43 - 43) =    -12.12806  eV     1   --> A'             
     e( 44 - 44) =    -11.82955  eV     1   --> A'             
     e( 45 - 45) =    -11.74701  eV     1   --> A'             
     e( 46 - 46) =    -11.63580  eV     1   --> A'             
     e( 47 - 47) =    -11.52697  eV     1   --> A'             
     e( 48 - 48) =    -11.23219  eV     1   --> A'             
     e( 49 - 49) =    -11.11591  eV     1   --> A'             
     e( 50 - 50) =    -11.03573  eV     1   --> A'             
     e( 51 - 51) =    -10.98030  eV     1   --> A''            
     e( 52 - 52) =    -10.85933  eV     1   --> A'             
     e( 53 - 53) =    -10.66635  eV     1   --> A'             
     e( 54 - 54) =    -10.47658  eV     1   --> A'             
     e( 55 - 55) =    -10.42254  eV     1   --> A'             
     e( 56 - 56) =    -10.40814  eV     1   --> A''            
     e( 57 - 57) =    -10.22942  eV     1   --> A''            
     e( 58 - 58) =    -10.22897  eV     1   --> A'             
     e( 59 - 59) =    -10.17103  eV     1   --> A'             
     e( 60 - 60) =    -10.09760  eV     1   --> A''            
     e( 61 - 61) =    -10.07653  eV     1   --> A'             
     e( 62 - 62) =     -9.98735  eV     1   --> A'             
     e( 63 - 63) =     -9.93561  eV     1   --> A'             
     e( 64 - 64) =     -9.88761  eV     1   --> A'             
     e( 65 - 65) =     -9.85847  eV     1   --> A'             
     e( 66 - 66) =     -9.83236  eV     1   --> A''            
     e( 67 - 67) =     -9.72934  eV     1   --> A''            
     e( 68 - 68) =     -9.70428  eV     1   --> A'             
     e( 69 - 69) =     -9.59564  eV     1   --> A'             
     e( 70 - 70) =     -9.54762  eV     1   --> A''            
     e( 71 - 71) =     -9.38952  eV     1   --> A'             
     e( 72 - 72) =     -9.32969  eV     1   --> A'             
     e( 73 - 73) =     -9.01613  eV     1   --> A'             
     e( 74 - 74) =     -8.82619  eV     1   --> A'             
     e( 75 - 75) =     -8.72447  eV     1   --> A''            
     e( 76 - 76) =     -8.69935  eV     1   --> A'             
     e( 77 - 77) =     -8.63105  eV     1   --> A''            
     e( 78 - 78) =     -8.54127  eV     1   --> A'             
     e( 79 - 79) =     -8.26010  eV     1   --> A'             
     e( 80 - 80) =     -8.24980  eV     1   --> A''            
     e( 81 - 81) =     -8.23607  eV     1   --> A'             
     e( 82 - 82) =     -8.09807  eV     1   --> A''            
     e( 83 - 83) =     -8.01937  eV     1   --> A''            
     e( 84 - 84) =     -7.87754  eV     1   --> A'             
     e( 85 - 85) =     -7.81795  eV     1   --> A''            
     e( 86 - 86) =     -7.70350  eV     1   --> A''            
     e( 87 - 87) =     -7.62796  eV     1   --> A'             
     e( 88 - 88) =     -7.60170  eV     1   --> A''            
     e( 89 - 89) =     -7.53831  eV     1   --> A''            
     e( 90 - 90) =     -7.24503  eV     1   --> A''            
     e( 91 - 91) =     -7.11818  eV     1   --> A''            
     e( 92 - 92) =     -6.94016  eV     1   --> A''            
     e( 93 - 93) =     -6.82763  eV     1   --> A'             
     e( 94 - 94) =     -6.77776  eV     1   --> A'             
     e( 95 - 95) =     -6.48175  eV     1   --> A''            
     e( 96 - 96) =     -6.42580  eV     1   --> A''            
     e( 97 - 97) =     -6.32384  eV     1   --> A''            
     e( 98 - 98) =     -6.23904  eV     1   --> A''            
     e( 99 - 99) =     -5.96006  eV     1   --> A''            
     e(100 -100) =     -4.98139  eV     1   --> A''            
     e(101 -101) =     -1.69721  eV     1   --> A''            
     e(102 -102) =     -1.09749  eV     1   --> A'             
     e(103 -103) =     -1.05599  eV     1   --> A''            
     e(104 -104) =     -1.03222  eV     1   --> A''            
     e(105 -105) =     -0.96967  eV     1   --> A''            
     e(106 -106) =     -0.95682  eV     1   --> A''            
     e(107 -107) =     -0.84443  eV     1   --> A''            
     e(108 -108) =     -0.67674  eV     1   --> A''            
     e(109 -109) =     -0.43444  eV     1   --> A''            
     e(110 -110) =     -0.36258  eV     1   --> A''            
     e(111 -111) =     -0.34376  eV     1   --> A'             
     e(112 -112) =     -0.19954  eV     1   --> A''            
     e(113 -113) =     -0.10405  eV     1   --> A'             
     e(114 -114) =     -0.06203  eV     1   --> A'             
     e(115 -115) =      0.21992  eV     1   --> A''            
     e(116 -116) =      0.30136  eV     1   --> A''            
     e(117 -117) =      0.38141  eV     1   --> A'             
     e(118 -118) =      0.40972  eV     1   --> A'             
     e(119 -119) =      0.50190  eV     1   --> A''            
     e(120 -120) =      0.54259  eV     1   --> A''            
     e(121 -121) =      0.63630  eV     1   --> A''            
     e(122 -122) =      0.64875  eV     1   --> A'             
     e(123 -123) =      0.71779  eV     1   --> A''            
     e(124 -124) =      0.75817  eV     1   --> A''            
     e(125 -125) =      0.78187  eV     1   --> A''            
     e(126 -126) =      1.10241  eV     1   --> A''            
     e(127 -127) =      1.13559  eV     1   --> A''            
     e(128 -128) =      1.16916  eV     1   --> A''            
     e(129 -129) =      1.22673  eV     1   --> A'             
     e(130 -130) =      1.24624  eV     1   --> A''            
     e(131 -131) =      1.44735  eV     1   --> A''            
     e(132 -132) =      1.63581  eV     1   --> A''            
     e(133 -133) =      1.80379  eV     1   --> A''            
     e(134 -134) =      1.85134  eV     1   --> A'             
     e(135 -135) =      1.87194  eV     1   --> A'             
     e(136 -136) =      1.98289  eV     1   --> A'             
     e(137 -137) =      2.21022  eV     1   --> A'             
     e(138 -138) =      2.23606  eV     1   --> A'             
     e(139 -139) =      2.24682  eV     1   --> A''            
     e(140 -140) =      2.56583  eV     1   --> A'             
     e(141 -141) =      2.57963  eV     1   --> A'             
     e(142 -142) =      2.64389  eV     1   --> A'             
     e(143 -143) =      2.69170  eV     1   --> A'             
     e(144 -144) =      2.71491  eV     1   --> A'             
     e(145 -145) =      2.83274  eV     1   --> A''            
     e(146 -146) =      2.92415  eV     1   --> A'             
     e(147 -147) =      2.96002  eV     1   --> A''            
     e(148 -148) =      3.03417  eV     1   --> A''            
     e(149 -149) =      3.04629  eV     1   --> A'             
     e(150 -150) =      3.06554  eV     1   --> A'             
     e(151 -151) =      3.09594  eV     1   --> A''            
     e(152 -152) =      3.12671  eV     1   --> A''            
     e(153 -153) =      3.18245  eV     1   --> A''            
     e(154 -154) =      3.19100  eV     1   --> A''            
     e(155 -155) =      3.28138  eV     1   --> A'             
     e(156 -156) =      3.30239  eV     1   --> A'             
     e(157 -157) =      3.41650  eV     1   --> A'             
     e(158 -158) =      3.41913  eV     1   --> A''            
     e(159 -159) =      3.62146  eV     1   --> A'             
     e(160 -160) =      3.69432  eV     1   --> A''            
     e(161 -161) =      3.72962  eV     1   --> A''            
     e(162 -162) =      3.75849  eV     1   --> A'             
     e(163 -163) =      3.94433  eV     1   --> A''            
     e(164 -164) =      4.11620  eV     1   --> A'             
     e(165 -165) =      4.17979  eV     1   --> A'             
     e(166 -166) =      4.20685  eV     1   --> A'             
     e(167 -167) =      4.33050  eV     1   --> A''            
     e(168 -168) =      4.38026  eV     1   --> A''            
     e(169 -169) =      4.38887  eV     1   --> A'             
     e(170 -170) =      4.39856  eV     1   --> A''            
     e(171 -171) =      4.41001  eV     1   --> A''            
     e(172 -172) =      4.52632  eV     1   --> A'             
     e(173 -173) =      4.59338  eV     1   --> A'             
     e(174 -174) =      4.71646  eV     1   --> A'             
     e(175 -175) =      4.71883  eV     1   --> A''            
     e(176 -176) =      4.79518  eV     1   --> A''            
     e(177 -177) =      4.83884  eV     1   --> A'             
     e(178 -178) =      4.84730  eV     1   --> A''            
     e(179 -179) =      4.87320  eV     1   --> A'             
     e(180 -180) =      4.89181  eV     1   --> A'             
     e(181 -181) =      4.94430  eV     1   --> A'             
     e(182 -182) =      4.96154  eV     1   --> A'             
     e(183 -183) =      4.99562  eV     1   --> A'             
     e(184 -184) =      5.02424  eV     1   --> A'             
     e(185 -185) =      5.07599  eV     1   --> A'             
     e(186 -186) =      5.09897  eV     1   --> A''            
     e(187 -187) =      5.13717  eV     1   --> A''            
     e(188 -188) =      5.26769  eV     1   --> A'             
     e(189 -189) =      5.30741  eV     1   --> A''            
     e(190 -190) =      5.31871  eV     1   --> A'             
     e(191 -191) =      5.34173  eV     1   --> A''            
     e(192 -192) =      5.37974  eV     1   --> A''            
     e(193 -193) =      5.42807  eV     1   --> A'             
     e(194 -194) =      5.49043  eV     1   --> A'             
     e(195 -195) =      5.50274  eV     1   --> A''            
     e(196 -196) =      5.51578  eV     1   --> A''            
     e(197 -197) =      5.55095  eV     1   --> A'             
     e(198 -198) =      5.58038  eV     1   --> A'             
     e(199 -199) =      5.62009  eV     1   --> A'             
     e(200 -200) =      5.66809  eV     1   --> A'             

 **************************************************************************

 **************************************************************************

                    xk=(   0.24936,   0.14418,   0.00000  )

     Band symmetry, C_s (m)     point group:

     e(  1 -  1) =    -23.44772  eV     1   --> A'             
     e(  2 -  2) =    -23.13722  eV     1   --> A'             
     e(  3 -  3) =    -22.92581  eV     1   --> A'             
     e(  4 -  4) =    -22.73833  eV     1   --> A'             
     e(  5 -  5) =    -22.54444  eV     1   --> A'             
     e(  6 -  6) =    -22.38641  eV     1   --> A'             
     e(  7 -  7) =    -22.27195  eV     1   --> A'             
     e(  8 -  8) =    -21.81552  eV     1   --> A'             
     e(  9 -  9) =    -21.73297  eV     1   --> A'             
     e( 10 - 10) =    -21.48631  eV     1   --> A'             
     e( 11 - 11) =    -21.27405  eV     1   --> A'             
     e( 12 - 12) =    -21.24864  eV     1   --> A'             
     e( 13 - 13) =    -21.13022  eV     1   --> A'             
     e( 14 - 14) =    -20.96719  eV     1   --> A'             
     e( 15 - 15) =    -20.85991  eV     1   --> A'             
     e( 16 - 16) =    -20.82306  eV     1   --> A'             
     e( 17 - 17) =    -20.65801  eV     1   --> A'             
     e( 18 - 18) =    -20.48109  eV     1   --> A'             
     e( 19 - 19) =    -20.44233  eV     1   --> A'             
     e( 20 - 20) =    -20.25047  eV     1   --> A'             
     e( 21 - 21) =    -20.20842  eV     1   --> A'             
     e( 22 - 22) =    -20.07110  eV     1   --> A'             
     e( 23 - 23) =    -20.04626  eV     1   --> A'             
     e( 24 - 24) =    -18.71236  eV     1   --> A'             
     e( 25 - 25) =    -16.67665  eV     1   --> A'             
     e( 26 - 26) =    -14.78315  eV     1   --> A'             
     e( 27 - 27) =    -14.40582  eV     1   --> A'             
     e( 28 - 28) =    -14.33795  eV     1   --> A'             
     e( 29 - 29) =    -14.24447  eV     1   --> A'             
     e( 30 - 30) =    -14.13294  eV     1   --> A'             
     e( 31 - 31) =    -14.08235  eV     1   --> A'             
     e( 32 - 32) =    -14.00574  eV     1   --> A'             
     e( 33 - 33) =    -13.90357  eV     1   --> A'             
     e( 34 - 34) =    -13.83155  eV     1   --> A'             
     e( 35 - 35) =    -13.49251  eV     1   --> A'             
     e( 36 - 36) =    -13.32753  eV     1   --> A'             
     e( 37 - 37) =    -13.03548  eV     1   --> A'             
     e( 38 - 38) =    -12.90310  eV     1   --> A'             
     e( 39 - 39) =    -12.80950  eV     1   --> A'             
     e( 40 - 40) =    -12.60742  eV     1   --> A'             
     e( 41 - 41) =    -12.46442  eV     1   --> A'             
     e( 42 - 42) =    -12.36726  eV     1   --> A'             
     e( 43 - 43) =    -12.21461  eV     1   --> A'             
     e( 44 - 44) =    -11.76998  eV     1   --> A'             
     e( 45 - 45) =    -11.67532  eV     1   --> A'             
     e( 46 - 46) =    -11.57437  eV     1   --> A'             
     e( 47 - 47) =    -11.45709  eV     1   --> A'             
     e( 48 - 48) =    -11.16866  eV     1   --> A'             
     e( 49 - 49) =    -11.06880  eV     1   --> A'             
     e( 50 - 50) =    -11.04820  eV     1   --> A'             
     e( 51 - 51) =    -10.95816  eV     1   --> A''            
     e( 52 - 52) =    -10.91087  eV     1   --> A'             
     e( 53 - 53) =    -10.82306  eV     1   --> A'             
     e( 54 - 54) =    -10.49379  eV     1   --> A'             
     e( 55 - 55) =    -10.47658  eV     1   --> A''            
     e( 56 - 56) =    -10.36998  eV     1   --> A'             
     e( 57 - 57) =    -10.29973  eV     1   --> A'             
     e( 58 - 58) =    -10.25545  eV     1   --> A''            
     e( 59 - 59) =    -10.21920  eV     1   --> A'             
     e( 60 - 60) =    -10.12203  eV     1   --> A''            
     e( 61 - 61) =    -10.03341  eV     1   --> A'             
     e( 62 - 62) =     -9.96829  eV     1   --> A'             
     e( 63 - 63) =     -9.92685  eV     1   --> A'             
     e( 64 - 64) =     -9.88627  eV     1   --> A'             
     e( 65 - 65) =     -9.86170  eV     1   --> A'             
     e( 66 - 66) =     -9.76838  eV     1   --> A''            
     e( 67 - 67) =     -9.70127  eV     1   --> A'             
     e( 68 - 68) =     -9.65938  eV     1   --> A''            
     e( 69 - 69) =     -9.58991  eV     1   --> A'             
     e( 70 - 70) =     -9.44970  eV     1   --> A''            
     e( 71 - 71) =     -9.34269  eV     1   --> A'             
     e( 72 - 72) =     -9.26839  eV     1   --> A'             
     e( 73 - 73) =     -8.98561  eV     1   --> A'             
     e( 74 - 74) =     -8.82266  eV     1   --> A''            
     e( 75 - 75) =     -8.78564  eV     1   --> A'             
     e( 76 - 76) =     -8.73742  eV     1   --> A''            
     e( 77 - 77) =     -8.69877  eV     1   --> A'             
     e( 78 - 78) =     -8.59694  eV     1   --> A'             
     e( 79 - 79) =     -8.28262  eV     1   --> A''            
     e( 80 - 80) =     -8.27484  eV     1   --> A'             
     e( 81 - 81) =     -8.23101  eV     1   --> A'             
     e( 82 - 82) =     -8.10127  eV     1   --> A''            
     e( 83 - 83) =     -8.06715  eV     1   --> A''            
     e( 84 - 84) =     -7.86419  eV     1   --> A'             
     e( 85 - 85) =     -7.84181  eV     1   --> A''            
     e( 86 - 86) =     -7.68411  eV     1   --> A''            
     e( 87 - 87) =     -7.63007  eV     1   --> A'             
     e( 88 - 88) =     -7.54277  eV     1   --> A''            
     e( 89 - 89) =     -7.45956  eV     1   --> A''            
     e( 90 - 90) =     -7.18202  eV     1   --> A''            
     e( 91 - 91) =     -7.05652  eV     1   --> A''            
     e( 92 - 92) =     -6.88874  eV     1   --> A''            
     e( 93 - 93) =     -6.87030  eV     1   --> A'             
     e( 94 - 94) =     -6.79599  eV     1   --> A'             
     e( 95 - 95) =     -6.53967  eV     1   --> A''            
     e( 96 - 96) =     -6.48731  eV     1   --> A''            
     e( 97 - 97) =     -6.36699  eV     1   --> A''            
     e( 98 - 98) =     -6.24425  eV     1   --> A''            
     e( 99 - 99) =     -5.94867  eV     1   --> A''            
     e(100 -100) =     -4.99174  eV     1   --> A''            
     e(101 -101) =     -1.68258  eV     1   --> A''            
     e(102 -102) =     -1.06834  eV     1   --> A'             
     e(103 -103) =     -1.04632  eV     1   --> A''            
     e(104 -104) =     -1.02040  eV     1   --> A''            
     e(105 -105) =     -0.94423  eV     1   --> A''            
     e(106 -106) =     -0.90361  eV     1   --> A''            
     e(107 -107) =     -0.81115  eV     1   --> A''            
     e(108 -108) =     -0.74245  eV     1   --> A''            
     e(109 -109) =     -0.49365  eV     1   --> A''            
     e(110 -110) =     -0.43756  eV     1   --> A'             
     e(111 -111) =     -0.43412  eV     1   --> A''            
     e(112 -112) =     -0.17517  eV     1   --> A''            
     e(113 -113) =     -0.13654  eV     1   --> A'             
     e(114 -114) =     -0.09577  eV     1   --> A'             
     e(115 -115) =      0.24915  eV     1   --> A''            
     e(116 -116) =      0.37380  eV     1   --> A''            
     e(117 -117) =      0.42735  eV     1   --> A''            
     e(118 -118) =      0.46543  eV     1   --> A''            
     e(119 -119) =      0.47015  eV     1   --> A'             
     e(120 -120) =      0.49991  eV     1   --> A'             
     e(121 -121) =      0.54717  eV     1   --> A''            
     e(122 -122) =      0.69485  eV     1   --> A''            
     e(123 -123) =      0.72559  eV     1   --> A''            
     e(124 -124) =      0.79134  eV     1   --> A'             
     e(125 -125) =      0.87913  eV     1   --> A''            
     e(126 -126) =      1.09642  eV     1   --> A''            
     e(127 -127) =      1.11738  eV     1   --> A''            
     e(128 -128) =      1.23670  eV     1   --> A''            
     e(129 -129) =      1.25589  eV     1   --> A'             
     e(130 -130) =      1.30386  eV     1   --> A''            
     e(131 -131) =      1.53842  eV     1   --> A''            
     e(132 -132) =      1.69676  eV     1   --> A'             
     e(133 -133) =      1.69761  eV     1   --> A''            
     e(134 -134) =      1.72092  eV     1   --> A'             
     e(135 -135) =      1.85970  eV     1   --> A''            
     e(136 -136) =      1.88567  eV     1   --> A'             
     e(137 -137) =      2.17847  eV     1   --> A'             
     e(138 -138) =      2.20300  eV     1   --> A'             
     e(139 -139) =      2.27061  eV     1   --> A''            
     e(140 -140) =      2.46915  eV     1   --> A'             
     e(141 -141) =      2.59028  eV     1   --> A'             
     e(142 -142) =      2.60540  eV     1   --> A'             
     e(143 -143) =      2.76861  eV     1   --> A''            
     e(144 -144) =      2.77675  eV     1   --> A'             
     e(145 -145) =      2.79904  eV     1   --> A'             
     e(146 -146) =      2.93958  eV     1   --> A''            
     e(147 -147) =      2.99376  eV     1   --> A''            
     e(148 -148) =      2.99438  eV     1   --> A'             
     e(149 -149) =      3.01415  eV     1   --> A'             
     e(150 -150) =      3.05233  eV     1   --> A''            
     e(151 -151) =      3.07569  eV     1   --> A'             
     e(152 -152) =      3.08994  eV     1   --> A''            
     e(153 -153) =      3.11525  eV     1   --> A''            
     e(154 -154) =      3.18081  eV     1   --> A''            
     e(155 -155) =      3.40385  eV     1   --> A''            
     e(156 -156) =      3.40874  eV     1   --> A'             
     e(157 -157) =      3.49603  eV     1   --> A'             
     e(158 -158) =      3.52986  eV     1   --> A'             
     e(159 -159) =      3.71130  eV     1   --> A''            
     e(160 -160) =      3.71323  eV     1   --> A'             
     e(161 -161) =      3.75351  eV     1   --> A''            
     e(162 -162) =      3.75809  eV     1   --> A''            
     e(163 -163) =      3.82829  eV     1   --> A'             
     e(164 -164) =      4.01890  eV     1   --> A'             
     e(165 -165) =      4.04725  eV     1   --> A'             
     e(166 -166) =      4.13565  eV     1   --> A'             
     e(167 -167) =      4.28462  eV     1   --> A''            
     e(168 -168) =      4.31983  eV     1   --> A''            
     e(169 -169) =      4.41614  eV     1   --> A'             
     e(170 -170) =      4.50918  eV     1   --> A'             
     e(171 -171) =      4.53728  eV     1   --> A''            
     e(172 -172) =      4.57255  eV     1   --> A''            
     e(173 -173) =      4.61487  eV     1   --> A'             
     e(174 -174) =      4.72371  eV     1   --> A''            
     e(175 -175) =      4.73233  eV     1   --> A'             
     e(176 -176) =      4.79964  eV     1   --> A''            
     e(177 -177) =      4.83301  eV     1   --> A''            
[...]
     e( 99 - 99) =     -5.98156  eV     1   --> A''            
     e(100 -100) =     -4.95832  eV     1   --> A''            
     e(101 -101) =     -1.73331  eV     1   --> A''            
     e(102 -102) =     -1.14533  eV     1   --> A'             
     e(103 -103) =     -1.07625  eV     1   --> A''            
     e(104 -104) =     -1.07054  eV     1   --> A''            
     e(105 -105) =     -1.05474  eV     1   --> A''            
     e(106 -106) =     -1.01537  eV     1   --> A''            
     e(107 -107) =     -0.92583  eV     1   --> A''            
     e(108 -108) =     -0.36657  eV     1   --> A''            
     e(109 -109) =     -0.25212  eV     1   --> A''            
     e(110 -110) =     -0.22644  eV     1   --> A''            
     e(111 -111) =     -0.07779  eV     1   --> A''            
     e(112 -112) =     -0.05530  eV     1   --> A'             
     e(113 -113) =     -0.02793  eV     1   --> A''            
     e(114 -114) =      0.01178  eV     1   --> A'             
     e(115 -115) =      0.08900  eV     1   --> A''            
     e(116 -116) =      0.09012  eV     1   --> A'             
     e(117 -117) =      0.13538  eV     1   --> A'             
     e(118 -118) =      0.17733  eV     1   --> A''            
     e(119 -119) =      0.19187  eV     1   --> A'             
     e(120 -120) =      0.29217  eV     1   --> A'             
     e(121 -121) =      0.78232  eV     1   --> A''            
     e(122 -122) =      0.82646  eV     1   --> A''            
     e(123 -123) =      0.89111  eV     1   --> A''            
     e(124 -124) =      0.89915  eV     1   --> A''            
     e(125 -125) =      0.94919  eV     1   --> A''            
     e(126 -126) =      0.99785  eV     1   --> A''            
     e(127 -127) =      1.03526  eV     1   --> A''            
     e(128 -128) =      1.08867  eV     1   --> A''            
     e(129 -129) =      1.17902  eV     1   --> A'             
     e(130 -130) =      1.20648  eV     1   --> A''            
     e(131 -131) =      1.28710  eV     1   --> A''            
     e(132 -132) =      1.41180  eV     1   --> A''            
     e(133 -133) =      1.58478  eV     1   --> A''            
     e(134 -134) =      2.20652  eV     1   --> A''            
     e(135 -135) =      2.27217  eV     1   --> A'             
     e(136 -136) =      2.28546  eV     1   --> A'             
     e(137 -137) =      2.31732  eV     1   --> A'             
     e(138 -138) =      2.39467  eV     1   --> A'             
     e(139 -139) =      2.40218  eV     1   --> A'             
     e(140 -140) =      2.42459  eV     1   --> A'             
     e(141 -141) =      2.46774  eV     1   --> A'             
     e(142 -142) =      2.51324  eV     1   --> A'             
     e(143 -143) =      2.54630  eV     1   --> A'             
     e(144 -144) =      2.66161  eV     1   --> A'             
     e(145 -145) =      2.67741  eV     1   --> A'             
     e(146 -146) =      2.78680  eV     1   --> A'             
     e(147 -147) =      2.99197  eV     1   --> A''            
     e(148 -148) =      3.02677  eV     1   --> A''            
     e(149 -149) =      3.03871  eV     1   --> A'             
     e(150 -150) =      3.05834  eV     1   --> A''            
     e(151 -151) =      3.09438  eV     1   --> A''            
     e(152 -152) =      3.16120  eV     1   --> A'             
     e(153 -153) =      3.16308  eV     1   --> A''            
     e(154 -154) =      3.22160  eV     1   --> A'             
     e(155 -155) =      3.29803  eV     1   --> A'             
     e(156 -156) =      3.40489  eV     1   --> A'             
     e(157 -157) =      3.40563  eV     1   --> A''            
     e(158 -158) =      3.47068  eV     1   --> A''            
     e(159 -159) =      3.55478  eV     1   --> A''            
     e(160 -160) =      3.56686  eV     1   --> A'             
     e(161 -161) =      3.58544  eV     1   --> A''            
     e(162 -162) =      3.76531  eV     1   --> A''            
     e(163 -163) =      3.79226  eV     1   --> A''            
     e(164 -164) =      3.89628  eV     1   --> A''            
     e(165 -165) =      4.10839  eV     1   --> A'             
     e(166 -166) =      4.34340  eV     1   --> A'             
     e(167 -167) =      4.55801  eV     1   --> A''            
     e(168 -168) =      4.58033  eV     1   --> A'             
     e(169 -169) =      4.59791  eV     1   --> A''            
     e(170 -170) =      4.61031  eV     1   --> A'             
     e(171 -171) =      4.63588  eV     1   --> A'             
     e(172 -172) =      4.67571  eV     1   --> A'             
     e(173 -173) =      4.68185  eV     1   --> A'             
     e(174 -174) =      4.74308  eV     1   --> A'             
     e(175 -175) =      4.74905  eV     1   --> A''            
     e(176 -176) =      4.75402  eV     1   --> A'             
     e(177 -177) =      4.79118  eV     1   --> A'             
     e(178 -178) =      4.82197  eV     1   --> A''            
     e(179 -179) =      4.82532  eV     1   --> A'             
     e(180 -180) =      4.84862  eV     1   --> A''            
     e(181 -181) =      4.86987  eV     1   --> A'             
     e(182 -182) =      4.87349  eV     1   --> A''            
     e(183 -183) =      4.91366  eV     1   --> A'             
     e(184 -184) =      4.93456  eV     1   --> A'             
     e(185 -185) =      4.96253  eV     1   --> A''            
     e(186 -186) =      4.97688  eV     1   --> A'             
     e(187 -187) =      4.98386  eV     1   --> A''            
     e(188 -188) =      4.99335  eV     1   --> A'             
     e(189 -189) =      5.03277  eV     1   --> A''            
     e(190 -190) =      5.06548  eV     1   --> A''            
     e(191 -191) =      5.07257  eV     1   --> A'             
     e(192 -192) =      5.10146  eV     1   --> A''            
     e(193 -193) =      5.15510  eV     1   --> A''            
     e(194 -194) =      5.16314  eV     1   --> A'             
     e(195 -195) =      5.35194  eV     1   --> A'             
     e(196 -196) =      5.52113  eV     1   --> A'             
     e(197 -197) =      5.63516  eV     1   --> A'             
     e(198 -198) =      5.80377  eV     1   --> A''            
     e(199 -199) =      5.84349  eV     1   --> A'             
     e(200 -200) =      5.88431  eV     1   -->   ?

 **************************************************************************

 **************************************************************************

                    xk=(   0.00000,   0.00000,   0.00000  )

     Band symmetry, C_s (m)     point group:

     e(  1 -  1) =    -23.48282  eV     1   --> A'             
     e(  2 -  2) =    -23.07228  eV     1   --> A'             
     e(  3 -  3) =    -22.74199  eV     1   --> A'             
     e(  4 -  4) =    -22.72759  eV     1   --> A'             
     e(  5 -  5) =    -22.69346  eV     1   --> A'             
     e(  6 -  6) =    -22.51062  eV     1   --> A'             
     e(  7 -  7) =    -22.44702  eV     1   --> A'             
     e(  8 -  8) =    -21.67609  eV     1   --> A'             
     e(  9 -  9) =    -21.39692  eV     1   --> A'             
     e( 10 - 10) =    -21.37093  eV     1   --> A'             
     e( 11 - 11) =    -21.35955  eV     1   --> A'             
     e( 12 - 12) =    -21.21444  eV     1   --> A'             
     e( 13 - 13) =    -21.21280  eV     1   --> A'             
     e( 14 - 14) =    -21.03175  eV     1   --> A'             
     e( 15 - 15) =    -20.90051  eV     1   --> A'             
     e( 16 - 16) =    -20.89752  eV     1   --> A'             
     e( 17 - 17) =    -20.83423  eV     1   --> A'             
     e( 18 - 18) =    -20.51076  eV     1   --> A'             
     e( 19 - 19) =    -20.49722  eV     1   --> A'             
     e( 20 - 20) =    -20.13122  eV     1   --> A'             
     e( 21 - 21) =    -20.10877  eV     1   --> A'             
     e( 22 - 22) =    -20.08041  eV     1   --> A'             
     e( 23 - 23) =    -20.05111  eV     1   --> A'             
     e( 24 - 24) =    -18.70773  eV     1   --> A'             
     e( 25 - 25) =    -16.66540  eV     1   --> A'             
     e( 26 - 26) =    -14.73670  eV     1   --> A'             
     e( 27 - 27) =    -14.27006  eV     1   --> A'             
     e( 28 - 28) =    -14.25362  eV     1   --> A'             
     e( 29 - 29) =    -14.19599  eV     1   --> A'             
     e( 30 - 30) =    -14.15163  eV     1   --> A'             
     e( 31 - 31) =    -14.11447  eV     1   --> A'             
     e( 32 - 32) =    -14.00527  eV     1   --> A'             
     e( 33 - 33) =    -13.92522  eV     1   --> A'             
     e( 34 - 34) =    -13.82364  eV     1   --> A'             
     e( 35 - 35) =    -13.80972  eV     1   --> A'             
     e( 36 - 36) =    -13.66896  eV     1   --> A'             
     e( 37 - 37) =    -13.51816  eV     1   --> A'             
     e( 38 - 38) =    -12.46949  eV     1   --> A'             
     e( 39 - 39) =    -12.36644  eV     1   --> A'             
     e( 40 - 40) =    -12.33368  eV     1   --> A'             
     e( 41 - 41) =    -12.31046  eV     1   --> A'             
     e( 42 - 42) =    -12.10081  eV     1   --> A'             
     e( 43 - 43) =    -12.07372  eV     1   --> A'             
     e( 44 - 44) =    -11.96042  eV     1   --> A'             
     e( 45 - 45) =    -11.77713  eV     1   --> A'             
     e( 46 - 46) =    -11.73642  eV     1   --> A'             
     e( 47 - 47) =    -11.66452  eV     1   --> A'             
     e( 48 - 48) =    -11.58338  eV     1   --> A'             
     e( 49 - 49) =    -11.42661  eV     1   --> A'             
     e( 50 - 50) =    -11.01986  eV     1   --> A''            
     e( 51 - 51) =    -10.70992  eV     1   --> A'             
     e( 52 - 52) =    -10.63680  eV     1   --> A'             
     e( 53 - 53) =    -10.59275  eV     1   --> A'             
     e( 54 - 54) =    -10.50781  eV     1   --> A'             
     e( 55 - 55) =    -10.44172  eV     1   --> A'             
     e( 56 - 56) =    -10.35517  eV     1   --> A'             
     e( 57 - 57) =    -10.20205  eV     1   --> A''            
     e( 58 - 58) =    -10.07034  eV     1   --> A''            
     e( 59 - 59) =    -10.06009  eV     1   --> A''            
     e( 60 - 60) =    -10.04996  eV     1   --> A'             
     e( 61 - 61) =    -10.02625  eV     1   --> A''            
     e( 62 - 62) =     -9.91064  eV     1   --> A'             
     e( 63 - 63) =     -9.89102  eV     1   --> A'             
     e( 64 - 64) =     -9.87324  eV     1   --> A''            
     e( 65 - 65) =     -9.84517  eV     1   --> A'             
     e( 66 - 66) =     -9.83528  eV     1   --> A'             
     e( 67 - 67) =     -9.81846  eV     1   --> A''            
     e( 68 - 68) =     -9.80915  eV     1   --> A'             
     e( 69 - 69) =     -9.80600  eV     1   --> A'             
     e( 70 - 70) =     -9.73161  eV     1   --> A'             
     e( 71 - 71) =     -9.51299  eV     1   --> A'             
     e( 72 - 72) =     -9.49793  eV     1   --> A'             
     e( 73 - 73) =     -9.25529  eV     1   --> A'             
     e( 74 - 74) =     -9.00060  eV     1   --> A'             
     e( 75 - 75) =     -8.46899  eV     1   --> A'             
     e( 76 - 76) =     -8.44043  eV     1   --> A''            
     e( 77 - 77) =     -8.40319  eV     1   --> A'             
     e( 78 - 78) =     -8.34295  eV     1   --> A'             
     e( 79 - 79) =     -8.22966  eV     1   --> A''            
     e( 80 - 80) =     -8.21765  eV     1   --> A'             
     e( 81 - 81) =     -8.20137  eV     1   --> A''            
     e( 82 - 82) =     -8.19100  eV     1   --> A''            
     e( 83 - 83) =     -8.07055  eV     1   --> A''            
     e( 84 - 84) =     -8.03115  eV     1   --> A''            
     e( 85 - 85) =     -7.92065  eV     1   --> A'             
     e( 86 - 86) =     -7.66443  eV     1   --> A''            
     e( 87 - 87) =     -7.61543  eV     1   --> A'             
     e( 88 - 88) =     -7.52304  eV     1   --> A''            
     e( 89 - 89) =     -7.51396  eV     1   --> A''            
     e( 90 - 90) =     -7.46812  eV     1   --> A''            
     e( 91 - 91) =     -7.29209  eV     1   --> A''            
     e( 92 - 92) =     -7.11176  eV     1   --> A''            
     e( 93 - 93) =     -6.74737  eV     1   --> A'             
     e( 94 - 94) =     -6.73387  eV     1   --> A'             
     e( 95 - 95) =     -6.33327  eV     1   --> A''            
     e( 96 - 96) =     -6.30307  eV     1   --> A''            
     e( 97 - 97) =     -6.25896  eV     1   --> A''            
     e( 98 - 98) =     -6.25472  eV     1   --> A''            
     e( 99 - 99) =     -5.98554  eV     1   --> A''            
     e(100 -100) =     -4.95515  eV     1   --> A''            
     e(101 -101) =     -1.73780  eV     1   --> A''            
     e(102 -102) =     -1.14970  eV     1   --> A'             
     e(103 -103) =     -1.08086  eV     1   --> A''            
     e(104 -104) =     -1.08034  eV     1   --> A''            
     e(105 -105) =     -1.05714  eV     1   --> A''            
     e(106 -106) =     -1.01911  eV     1   --> A''            
     e(107 -107) =     -0.93144  eV     1   --> A''            
     e(108 -108) =     -0.33196  eV     1   --> A''            
     e(109 -109) =     -0.23352  eV     1   --> A''            
     e(110 -110) =     -0.08859  eV     1   --> A''            
     e(111 -111) =     -0.08378  eV     1   --> A''            
     e(112 -112) =     -0.03554  eV     1   --> A''            
     e(113 -113) =     -0.01656  eV     1   --> A''            
     e(114 -114) =      0.05345  eV     1   --> A'             
     e(115 -115) =      0.06225  eV     1   --> A'             
     e(116 -116) =      0.06670  eV     1   --> A'             
     e(117 -117) =      0.08890  eV     1   --> A''            
     e(118 -118) =      0.10297  eV     1   --> A'             
     e(119 -119) =      0.14329  eV     1   --> A'             
     e(120 -120) =      0.21329  eV     1   --> A'             
     e(121 -121) =      0.88224  eV     1   --> A''            
     e(122 -122) =      0.88913  eV     1   --> A''            
     e(123 -123) =      0.89044  eV     1   --> A''            
     e(124 -124) =      0.90581  eV     1   --> A''            
     e(125 -125) =      0.91195  eV     1   --> A''            
     e(126 -126) =      0.93111  eV     1   --> A''            
     e(127 -127) =      1.04190  eV     1   --> A''            
     e(128 -128) =      1.16180  eV     1   --> A''            
     e(129 -129) =      1.17468  eV     1   --> A'             
     e(130 -130) =      1.19407  eV     1   --> A''            
     e(131 -131) =      1.22148  eV     1   --> A''            
     e(132 -132) =      1.40632  eV     1   --> A''            
     e(133 -133) =      1.53331  eV     1   --> A''            
     e(134 -134) =      2.20281  eV     1   --> A''            
     e(135 -135) =      2.38066  eV     1   --> A'             
     e(136 -136) =      2.38849  eV     1   --> A'             
     e(137 -137) =      2.38866  eV     1   --> A'             
     e(138 -138) =      2.40313  eV     1   --> A'             
     e(139 -139) =      2.41288  eV     1   --> A'             
     e(140 -140) =      2.43948  eV     1   --> A'             
     e(141 -141) =      2.51568  eV     1   --> A'             
     e(142 -142) =      2.53110  eV     1   --> A'             
     e(143 -143) =      2.53700  eV     1   --> A'             
     e(144 -144) =      2.54339  eV     1   --> A'             
     e(145 -145) =      2.57980  eV     1   --> A'             
     e(146 -146) =      2.58880  eV     1   --> A'             
     e(147 -147) =      3.02448  eV     1   --> A''            
     e(148 -148) =      3.04145  eV     1   --> A''            
     e(149 -149) =      3.04992  eV     1   --> A''            
     e(150 -150) =      3.07702  eV     1   --> A''            
     e(151 -151) =      3.08794  eV     1   --> A'             
     e(152 -152) =      3.16556  eV     1   --> A''            
     e(153 -153) =      3.21107  eV     1   --> A'             
     e(154 -154) =      3.22346  eV     1   --> A'             
     e(155 -155) =      3.25753  eV     1   --> A'             
     e(156 -156) =      3.40538  eV     1   --> A''            
     e(157 -157) =      3.41468  eV     1   --> A'             
     e(158 -158) =      3.51313  eV     1   --> A'             
     e(159 -159) =      3.58778  eV     1   --> A''            
     e(160 -160) =      3.67766  eV     1   --> A''            
     e(161 -161) =      3.68273  eV     1   --> A''            
     e(162 -162) =      3.68908  eV     1   --> A''            
     e(163 -163) =      3.69023  eV     1   --> A''            
     e(164 -164) =      3.69639  eV     1   --> A''            
     e(165 -165) =      4.10685  eV     1   --> A'             
     e(166 -166) =      4.33894  eV     1   --> A'             
     e(167 -167) =      4.59613  eV     1   --> A'             
     e(168 -168) =      4.64933  eV     1   --> A'             
     e(169 -169) =      4.66143  eV     1   --> A'             
     e(170 -170) =      4.66743  eV     1   --> A'             
     e(171 -171) =      4.67150  eV     1   --> A''            
     e(172 -172) =      4.72166  eV     1   --> A'             
     e(173 -173) =      4.78031  eV     1   --> A'             
     e(174 -174) =      4.81579  eV     1   --> A''            
     e(175 -175) =      4.82243  eV     1   --> A''            
     e(176 -176) =      4.82616  eV     1   --> A''            
     e(177 -177) =      4.82689  eV     1   --> A''            
     e(178 -178) =      4.83321  eV     1   --> A'             
     e(179 -179) =      4.83770  eV     1   --> A''            
     e(180 -180) =      4.84765  eV     1   --> A'             
     e(181 -181) =      4.86090  eV     1   --> A'             
     e(182 -182) =      4.86224  eV     1   --> A'             
     e(183 -183) =      4.87327  eV     1   --> A'             
     e(184 -184) =      4.87787  eV     1   --> A'             
     e(185 -186) =      4.88821  eV     2   --> A'             
     e(185 -186) =      4.88821  eV     2   --> A''            
     e(187 -187) =      4.92756  eV     1   --> A''            
     e(188 -188) =      4.93029  eV     1   --> A'             
     e(189 -189) =      4.94191  eV     1   --> A'             
     e(190 -190) =      4.94516  eV     1   --> A''            
     e(191 -191) =      4.99656  eV     1   --> A''            
     e(192 -192) =      5.06016  eV     1   --> A''            
     e(193 -193) =      5.09550  eV     1   --> A''            
     e(194 -194) =      5.12154  eV     1   --> A'             
     e(195 -195) =      5.34519  eV     1   --> A'             
     e(196 -196) =      5.51411  eV     1   --> A'             
     e(197 -197) =      5.64097  eV     1   --> A'             
     e(198 -198) =      5.81705  eV     1   --> A''            
     e(199 -199) =      5.89995  eV     1   --> A'             
     e(200 -200) =      5.94278  eV     1   --> A'             

 **************************************************************************
 
     BANDS        :   2m16.42s CPU   2m47.95s WALL

 
   This run was terminated on:   9:42:37  15Nov2022            

=------------------------------------------------------------------------------=
   JOB DONE.
=------------------------------------------------------------------------------=
