
     Program PWSCF v.6.4.1 starts on  1Jul2021 at 21:34:54 

     This program is part of the open-source Quantum ESPRESSO suite
     for quantum simulation of materials; please cite
         "P. Giannozzi et al., J. Phys.:Condens. Matter 21 395502 (2009);
         "P. Giannozzi et al., J. Phys.:Condens. Matter 29 465901 (2017);
          URL http://www.quantum-espresso.org", 
     in publications or presentations arising from this work. More details at
     http://www.quantum-espresso.org/quote

     Parallel version (MPI), running on    64 processors

     MPI processes distributed on     2 nodes
     R & G space division:  proc/nbgrp/npool/nimage =      64
     Waiting for input...
     Reading input from standard input

     Current dimensions of program PWSCF are:
     Max number of different atomic species (ntypx) = 10
     Max number of k-points (npk) =  40000
     Max angular momentum in pseudopotentials (lmaxx) =  3
               file N.pbe-n-kjpaw_psl.1.0.0.UPF: wavefunction(s)  2S renormalized
               file C.pbe-n-kjpaw_psl.1.0.0.UPF: wavefunction(s)  2S 2P renormalized
               file C.pbe-n-kjpaw_psl.1.0.0.UPF: wavefunction(s)  2S 2P renormalized
               file C.pbe-n-kjpaw_psl.1.0.0.UPF: wavefunction(s)  2S 2P renormalized

     --------------------------------------------
     Parameters for DFT-D3 Dispersion Correction:
     --------------------------------------------
       Reference C6 values for interpolation: 

         atom   Coordination number   C6
         B          0.000           214.36
         B          0.971           150.74
         B          1.944           106.23
         B          2.913            62.89
         B          4.586            56.06
         C1         0.000            98.23
         C1         0.987            86.49
         C1         1.998            58.72
         C1         2.999            51.56
         C1         3.984            36.41
         C2         0.000            98.23
         C2         0.987            86.49
         C2         1.998            58.72
         C2         2.999            51.56
         C2         3.984            36.41
         C3         0.000            98.23
         C3         0.987            86.49
         C3         1.998            58.72
         C3         2.999            51.56
         C3         3.984            36.41
         N          0.000            50.54
         N          0.994            44.25
         N          2.014            39.35
         N          2.990            31.16

       Values used:

         atom   Coordination number  R0_AB[au]  C6      C8
         B          3.326            3.039     62.90   2506.22
         B          3.318            3.039     62.90   2506.42
         B          3.320            3.039     62.90   2506.37
         B          3.324            3.039     62.90   2506.29
         B          3.326            3.039     62.90   2506.23
         B          3.324            3.039     62.90   2506.27
         B          3.327            3.039     62.90   2506.21
         B          3.326            3.039     62.90   2506.24
         B          3.321            3.039     62.90   2506.34
         B          3.311            3.039     62.91   2506.58
         B          3.319            3.039     62.90   2506.40
         B          3.324            3.039     62.90   2506.27
         B          3.324            3.039     62.90   2506.29
         B          3.324            3.039     62.90   2506.27
         B          3.325            3.039     62.90   2506.25
         B          3.329            3.039     62.90   2506.16
         B          3.304            3.039     62.91   2506.74
         B          3.292            3.039     62.92   2507.00
         B          3.318            3.039     62.90   2506.41
         B          3.324            3.039     62.90   2506.27
         B          3.326            3.039     62.90   2506.23
         B          3.322            3.039     62.90   2506.32
         B          3.319            3.039     62.90   2506.39
         B          3.305            3.039     62.91   2506.70
         C2         3.251            2.750     49.40   1428.69
         B          3.292            3.039     62.92   2507.00
         B          3.319            3.039     62.90   2506.40
         B          3.324            3.039     62.90   2506.29
         B          3.321            3.039     62.90   2506.36
         B          3.316            3.039     62.90   2506.45
         B          3.303            3.039     62.91   2506.75
         B          3.305            3.039     62.91   2506.70
         B          3.304            3.039     62.91   2506.74
         B          3.311            3.039     62.91   2506.58
         B          3.320            3.039     62.90   2506.37
         B          3.317            3.039     62.90   2506.43
         B          3.317            3.039     62.90   2506.43
         B          3.316            3.039     62.90   2506.45
         B          3.319            3.039     62.90   2506.39
         B          3.329            3.039     62.90   2506.16
         B          3.321            3.039     62.90   2506.34
         B          3.318            3.039     62.90   2506.42
         B          3.320            3.039     62.90   2506.38
         B          3.317            3.039     62.90   2506.43
         B          3.321            3.039     62.90   2506.36
         B          3.322            3.039     62.90   2506.32
         B          3.325            3.039     62.90   2506.25
         B          3.326            3.039     62.90   2506.24
         B          3.326            3.039     62.90   2506.22
         N          3.130            2.478     31.22    688.74
         N          3.129            2.478     31.22    688.75
         N          3.126            2.478     31.22    688.77
         N          3.128            2.478     31.22    688.75
         N          3.129            2.478     31.22    688.74
         N          3.129            2.478     31.22    688.75
         N          3.129            2.478     31.22    688.75
         N          3.129            2.478     31.22    688.75
         N          3.130            2.478     31.22    688.74
         N          3.126            2.478     31.22    688.77
         N          3.125            2.478     31.22    688.79
         N          3.129            2.478     31.22    688.75
         N          3.129            2.478     31.22    688.75
         N          3.129            2.478     31.22    688.75
         N          3.129            2.478     31.22    688.74
         N          3.130            2.478     31.22    688.73
         N          3.133            2.478     31.22    688.70
         C1         3.189            2.750     50.18   1451.23
         N          3.129            2.478     31.22    688.74
         N          3.129            2.478     31.22    688.75
         N          3.129            2.478     31.22    688.74
         N          3.129            2.478     31.22    688.75
         N          3.127            2.478     31.22    688.77
         N          3.123            2.478     31.22    688.81
         N          3.151            2.478     31.21    688.55
         C3         3.189            2.750     50.18   1451.23
         N          3.125            2.478     31.22    688.79
         N          3.128            2.478     31.22    688.75
         N          3.127            2.478     31.22    688.76
         N          3.127            2.478     31.22    688.77
         N          3.125            2.478     31.22    688.79
         N          3.123            2.478     31.22    688.81
         N          3.133            2.478     31.22    688.70
         N          3.126            2.478     31.22    688.77
         N          3.126            2.478     31.22    688.77
         N          3.127            2.478     31.22    688.77
         N          3.127            2.478     31.22    688.77
         N          3.127            2.478     31.22    688.77
         N          3.127            2.478     31.22    688.77
         N          3.130            2.478     31.22    688.73
         N          3.130            2.478     31.22    688.74
         N          3.129            2.478     31.22    688.75
         N          3.130            2.478     31.22    688.74
         N          3.127            2.478     31.22    688.77
         N          3.127            2.478     31.22    688.76
         N          3.129            2.478     31.22    688.75
         N          3.129            2.478     31.22    688.74
         N          3.129            2.478     31.22    688.75
         N          3.130            2.478     31.22    688.74

         Molecular C6 ( Ry / a.u.^6 ) =    437704.47


     gamma-point specific algorithms are used

     Subspace diagonalization in iterative solution of the eigenvalue problem:
     one sub-group per band group will be used
     scalapack distributed-memory algorithm (size of sub-group:  5*  5 procs)

     Message from routine setup:
     DEPRECATED: symmetry with ibrav=0, use correct ibrav instead
 
     Parallelization info
     --------------------
     sticks:   dense  smooth     PW     G-vecs:    dense   smooth      PW
     Min         189     189     46                19310    19310    2402
     Max         192     192     48                19330    19330    2424
     Sum       12165   12165   3049              1236769  1236769  154717
 


     bravais-lattice index     =            0
     lattice parameter (alat)  =      33.2346  a.u.
     unit-cell volume          =   36191.1115 (a.u.)^3
     number of atoms/cell      =           98
     number of atomic types    =            5
     number of electrons       =       391.00
     number of Kohn-Sham states=          245
     kinetic-energy cutoff     =      40.0000  Ry
     charge density cutoff     =     160.0000  Ry
     convergence threshold     =      1.0E-10
     mixing beta               =       0.7000
     number of iterations used =            8  plain     mixing
     Exchange-correlation      = SLA PW PBX PBC ( 1  4  3  4 0 0)
     Using LIBXC version       =    4   3   4
     nstep                     =           50


     celldm(1)=  33.234611  celldm(2)=   0.000000  celldm(3)=   0.000000
     celldm(4)=   0.000000  celldm(5)=   0.000000  celldm(6)=   0.000000

     crystal axes: (cart. coord. in units of alat)
               a(1) = (   1.000284   0.000429   0.000000 )  
               a(2) = (  -0.499770   0.866486   0.000000 )  
               a(3) = (   0.000000   0.000000   1.137204 )  

     reciprocal axes: (cart. coord. in units 2 pi/alat)
               b(1) = (  0.999469  0.576472  0.000000 )  
               b(2) = ( -0.000495  1.153802  0.000000 )  
               b(3) = (  0.000000  0.000000  0.879350 )  


     PseudoPot. # 1 for B  read from file:
     ./pseudo/B.pbe-n-kjpaw_psl.1.0.0.UPF
     MD5 check sum: 8c825a5969375aca5c2c6ad5945b3059
     Pseudo is Projector augmented-wave + core cor, Zval =  3.0
     Generated using "atomic" code by A. Dal Corso v.6.3
     Shape of augmentation charge: PSQ
     Using radial grid of 1059 points,  4 beta functions with: 
                l(1) =   0
                l(2) =   0
                l(3) =   1
                l(4) =   1
     Q(r) pseudized with 0 coefficients 


     PseudoPot. # 2 for N  read from file:
     ./pseudo/N.pbe-n-kjpaw_psl.1.0.0.UPF
     MD5 check sum: 14c48229446f9f2d411169a3abcbc3fa
     Pseudo is Projector augmented-wave + core cor, Zval =  5.0
     Generated using "atomic" code by A. Dal Corso v.6.3
     Shape of augmentation charge: PSQ
     Using radial grid of 1085 points,  4 beta functions with: 
                l(1) =   0
                l(2) =   0
                l(3) =   1
                l(4) =   1
     Q(r) pseudized with 0 coefficients 


     PseudoPot. # 3 for C  read from file:
     ./pseudo/C.pbe-n-kjpaw_psl.1.0.0.UPF
     MD5 check sum: 5f16ad9a65e90284d1d834d4ab3b0f7d
     Pseudo is Projector augmented-wave + core cor, Zval =  4.0
     Generated using "atomic" code by A. Dal Corso v.6.3
     Shape of augmentation charge: PSQ
     Using radial grid of 1073 points,  4 beta functions with: 
                l(1) =   0
                l(2) =   0
                l(3) =   1
                l(4) =   1
     Q(r) pseudized with 0 coefficients 


     PseudoPot. # 4 for C  read from file:
     ./pseudo/C.pbe-n-kjpaw_psl.1.0.0.UPF
     MD5 check sum: 5f16ad9a65e90284d1d834d4ab3b0f7d
     Pseudo is Projector augmented-wave + core cor, Zval =  4.0
     Generated using "atomic" code by A. Dal Corso v.6.3
     Shape of augmentation charge: PSQ
     Using radial grid of 1073 points,  4 beta functions with: 
                l(1) =   0
                l(2) =   0
                l(3) =   1
                l(4) =   1
     Q(r) pseudized with 0 coefficients 


     PseudoPot. # 5 for C  read from file:
     ./pseudo/C.pbe-n-kjpaw_psl.1.0.0.UPF
     MD5 check sum: 5f16ad9a65e90284d1d834d4ab3b0f7d
     Pseudo is Projector augmented-wave + core cor, Zval =  4.0
     Generated using "atomic" code by A. Dal Corso v.6.3
     Shape of augmentation charge: PSQ
     Using radial grid of 1073 points,  4 beta functions with: 
                l(1) =   0
                l(2) =   0
                l(3) =   1
                l(4) =   1
     Q(r) pseudized with 0 coefficients 


     atomic species   valence    mass     pseudopotential
        B              3.00    10.00000     B ( 1.00)
        N              5.00    14.00000     N ( 1.00)
        C1             4.00    12.00000     C ( 1.00)
        C2             4.00    12.00000     C ( 1.00)
        C3             4.00    12.00000     C ( 1.00)

     Starting magnetic structure 
     atomic species   magnetization
        B            0.000
        N            0.000
        C1           1.000
        C2           0.000
        C3           0.000

      2 Sym. Ops. (no inversion) found



   Cartesian axes

     site n.     atom                  positions (alat units)
         1           B   tau(   1) = (  -0.0000522   0.0821415   0.5686018  )
         2           B   tau(   2) = (  -0.0714770   0.2061544   0.5686018  )
         3           B   tau(   3) = (  -0.1429697   0.3300469   0.5686018  )
         4           B   tau(   4) = (  -0.2144250   0.4537723   0.5686018  )
         5           B   tau(   5) = (  -0.2853621   0.5775899   0.5686018  )
         6           B   tau(   6) = (  -0.3566238   0.7015116   0.5686018  )
         7           B   tau(   7) = (  -0.4282105   0.8251705   0.5686018  )
         8           B   tau(   8) = (   0.1428032   0.0818212   0.5686018  )
         9           B   tau(   9) = (   0.0711131   0.2052886   0.5686018  )
        10           B   tau(  10) = (   0.0000478   0.3301796   0.5686018  )
        11           B   tau(  11) = (  -0.0717502   0.4535955   0.5686018  )
        12           B   tau(  12) = (  -0.1432044   0.5777196   0.5686018  )
        13           B   tau(  13) = (  -0.2140422   0.7015204   0.5686018  )
        14           B   tau(  14) = (  -0.2853254   0.8250041   0.5686018  )
        15           B   tau(  15) = (   0.2861347   0.0817992   0.5686018  )
        16           B   tau(  16) = (   0.2146341   0.2045489   0.5686018  )
        17           B   tau(  17) = (   0.1433094   0.3278196   0.5686018  )
        18           B   tau(  18) = (   0.0709590   0.4547402   0.5686018  )
        19           B   tau(  19) = (  -0.0013940   0.5787479   0.5686018  )
        20           B   tau(  20) = (  -0.0714087   0.7020735   0.5686018  )
        21           B   tau(  21) = (  -0.1423752   0.8252505   0.5686018  )
        22           B   tau(  22) = (   0.4288168   0.0826781   0.5686018  )
        23           B   tau(  23) = (   0.3571621   0.2063062   0.5686018  )
        24           B   tau(  24) = (   0.2844541   0.3289565   0.5686018  )
        25           C2  tau(  25) = (   0.2151985   0.4536978   0.5686018  )
        26           B   tau(  26) = (   0.1421762   0.5780922   0.5686018  )
        27           B   tau(  27) = (   0.0718130   0.7022544   0.5686018  )
        28           B   tau(  28) = (   0.0003226   0.8257260   0.5686018  )
        29           B   tau(  29) = (   0.5714909   0.0828750   0.5686018  )
        30           B   tau(  30) = (   0.5000177   0.2066406   0.5686018  )
        31           B   tau(  31) = (   0.4283801   0.3306177   0.5686018  )
        32           B   tau(  32) = (   0.3578558   0.4560918   0.5686018  )
        33           B   tau(  33) = (   0.2882680   0.5788953   0.5686018  )
        34           B   tau(  34) = (   0.2145933   0.7017834   0.5686018  )
        35           B   tau(  35) = (   0.1431995   0.8257066   0.5686018  )
        36           B   tau(  36) = (   0.7143735   0.0829459   0.5686018  )
        37           B   tau(  37) = (   0.6428953   0.2067673   0.5686018  )
        38           B   tau(  38) = (   0.5715662   0.3305663   0.5686018  )
        39           B   tau(  39) = (   0.5004280   0.4544501   0.5686018  )
        40           B   tau(  40) = (   0.4306859   0.5787616   0.5686018  )
        41           B   tau(  41) = (   0.3582848   0.7026846   0.5686018  )
        42           B   tau(  42) = (   0.2862399   0.8257383   0.5686018  )
        43           B   tau(  43) = (   0.8574599   0.0828884   0.5686018  )
        44           B   tau(  44) = (   0.7858669   0.2067761   0.5686018  )
        45           B   tau(  45) = (   0.7144870   0.3305515   0.5686018  )
        46           B   tau(  46) = (   0.6433204   0.4542093   0.5686018  )
        47           B   tau(  47) = (   0.5727406   0.5782151   0.5686018  )
        48           B   tau(  48) = (   0.5010557   0.7023328   0.5686018  )
        49           B   tau(  49) = (   0.4293507   0.8258890   0.5686018  )
        50           N   tau(  50) = (   0.0714160   0.0409313   0.5686018  )
        51           N   tau(  51) = (  -0.0002614   0.1644099   0.5686018  )
        52           N   tau(  52) = (  -0.0715676   0.2886955   0.5686018  )
        53           N   tau(  53) = (  -0.1432539   0.4125034   0.5686018  )
        54           N   tau(  54) = (  -0.2143530   0.5362867   0.5686018  )
        55           N   tau(  55) = (  -0.2853358   0.6601312   0.5686018  )
        56           N   tau(  56) = (  -0.3567463   0.7839106   0.5686018  )
        57           N   tau(  57) = (   0.2145111   0.0408831   0.5686018  )
        58           N   tau(  58) = (   0.1428198   0.1640649   0.5686018  )
        59           N   tau(  59) = (   0.0711594   0.2875080   0.5686018  )
        60           N   tau(  60) = (  -0.0007655   0.4126128   0.5686018  )
        61           N   tau(  61) = (  -0.0720809   0.5365721   0.5686018  )
        62           N   tau(  62) = (  -0.1427031   0.6603328   0.5686018  )
        63           N   tau(  63) = (  -0.2138449   0.7839570   0.5686018  )
        64           N   tau(  64) = (   0.3575604   0.0411535   0.5686018  )
        65           N   tau(  65) = (   0.2863130   0.1642396   0.5686018  )
        66           N   tau(  66) = (   0.2149914   0.2864399   0.5686018  )
        67           C1  tau(  67) = (   0.1453116   0.4126131   0.5686018  )
        68           N   tau(  68) = (   0.0697754   0.5376583   0.5686018  )
        69           N   tau(  69) = (  -0.0002121   0.6610525   0.5686018  )
        70           N   tau(  70) = (  -0.0711011   0.7844064   0.5686018  )
        71           N   tau(  71) = (   0.5001256   0.0416925   0.5686018  )
        72           N   tau(  72) = (   0.4286530   0.1653826   0.5686018  )
        73           N   tau(  73) = (   0.3566606   0.2894548   0.5686018  )
        74           N   tau(  74) = (   0.2838383   0.4140691   0.5686018  )
        75           C3  tau(  75) = (   0.2158359   0.5347648   0.5686018  )
        76           N   tau(  76) = (   0.1427975   0.6612711   0.5686018  )
        77           N   tau(  77) = (   0.0716480   0.7847244   0.5686018  )
        78           N   tau(  78) = (   0.6429125   0.0417919   0.5686018  )
        79           N   tau(  79) = (   0.5713889   0.1655301   0.5686018  )
        80           N   tau(  80) = (   0.4996907   0.2894465   0.5686018  )
        81           N   tau(  81) = (   0.4281684   0.4133101   0.5686018  )
        82           N   tau(  82) = (   0.3599448   0.5375067   0.5686018  )
        83           N   tau(  83) = (   0.2871038   0.6615347   0.5686018  )
        84           N   tau(  84) = (   0.2147120   0.7845462   0.5686018  )
        85           N   tau(  85) = (   0.7858973   0.0417677   0.5686018  )
        86           N   tau(  86) = (   0.7143259   0.1655268   0.5686018  )
        87           N   tau(  87) = (   0.6428546   0.2893123   0.5686018  )
        88           N   tau(  88) = (   0.5716144   0.4129989   0.5686018  )
        89           N   tau(  89) = (   0.5014341   0.5368405   0.5686018  )
        90           N   tau(  90) = (   0.4298389   0.6611965   0.5686018  )
        91           N   tau(  91) = (   0.3579995   0.7849360   0.5686018  )
        92           N   tau(  92) = (   0.9288675   0.0416611   0.5686018  )
        93           N   tau(  93) = (   0.8572901   0.1654237   0.5686018  )
        94           N   tau(  94) = (   0.7857767   0.2892401   0.5686018  )
        95           N   tau(  95) = (   0.7144694   0.4129468   0.5686018  )
        96           N   tau(  96) = (   0.6436536   0.5366815   0.5686018  )
        97           N   tau(  97) = (   0.5723631   0.6607010   0.5686018  )
        98           N   tau(  98) = (   0.5007738   0.7846008   0.5686018  )

     number of k points=     1
                       cart. coord. in units 2pi/alat
        k(    1) = (   0.0000000   0.0000000   0.0000000), wk =   1.0000000

     Dense  grid:   618385 G-vectors     FFT dimensions: ( 135, 135, 160)

     Occupations read from input 

      Spin-up

        1.0000   1.0000   1.0000   1.0000   1.0000   1.0000   1.0000   1.0000
        1.0000   1.0000   1.0000   1.0000   1.0000   1.0000   1.0000   1.0000
        1.0000   1.0000   1.0000   1.0000   1.0000   1.0000   1.0000   1.0000
        1.0000   1.0000   1.0000   1.0000   1.0000   1.0000   1.0000   1.0000
        1.0000   1.0000   1.0000   1.0000   1.0000   1.0000   1.0000   1.0000
        1.0000   1.0000   1.0000   1.0000   1.0000   1.0000   1.0000   1.0000
        1.0000   1.0000   1.0000   1.0000   1.0000   1.0000   1.0000   1.0000
        1.0000   1.0000   1.0000   1.0000   1.0000   1.0000   1.0000   1.0000
        1.0000   1.0000   1.0000   1.0000   1.0000   1.0000   1.0000   1.0000
        1.0000   1.0000   1.0000   1.0000   1.0000   1.0000   1.0000   1.0000
        1.0000   1.0000   1.0000   1.0000   1.0000   1.0000   1.0000   1.0000
        1.0000   1.0000   1.0000   1.0000   1.0000   1.0000   1.0000   1.0000
        1.0000   1.0000   1.0000   1.0000   1.0000   1.0000   1.0000   1.0000
        1.0000   1.0000   1.0000   1.0000   1.0000   1.0000   1.0000   1.0000
        1.0000   1.0000   1.0000   1.0000   1.0000   1.0000   1.0000   1.0000
        1.0000   1.0000   1.0000   1.0000   1.0000   1.0000   1.0000   1.0000
        1.0000   1.0000   1.0000   1.0000   1.0000   1.0000   1.0000   1.0000
        1.0000   1.0000   1.0000   1.0000   1.0000   1.0000   1.0000   1.0000
        1.0000   1.0000   1.0000   1.0000   1.0000   1.0000   1.0000   1.0000
        1.0000   1.0000   1.0000   1.0000   1.0000   1.0000   1.0000   1.0000
        1.0000   1.0000   1.0000   1.0000   1.0000   1.0000   1.0000   1.0000
        1.0000   1.0000   1.0000   1.0000   1.0000   1.0000   1.0000   1.0000
        1.0000   1.0000   1.0000   1.0000   1.0000   1.0000   1.0000   1.0000
        1.0000   1.0000   1.0000   1.0000   1.0000   1.0000   1.0000   1.0000
        1.0000   1.0000   1.0000   1.0000   0.0000   0.0000   0.0000   0.0000
        0.0000   0.0000   0.0000   0.0000   0.0000   0.0000   0.0000   0.0000
        0.0000   0.0000   0.0000   0.0000   0.0000   0.0000   0.0000   0.0000
        0.0000   0.0000   0.0000   0.0000   0.0000   0.0000   0.0000   0.0000
        0.0000   0.0000   0.0000   0.0000   0.0000   0.0000   0.0000   0.0000
        0.0000   0.0000   0.0000   0.0000   0.0000   0.0000   0.0000   0.0000
        0.0000   0.0000   0.0000   0.0000   0.0000

      Spin-down

        1.0000   1.0000   1.0000   1.0000   1.0000   1.0000   1.0000   1.0000
        1.0000   1.0000   1.0000   1.0000   1.0000   1.0000   1.0000   1.0000
        1.0000   1.0000   1.0000   1.0000   1.0000   1.0000   1.0000   1.0000
        1.0000   1.0000   1.0000   1.0000   1.0000   1.0000   1.0000   1.0000
        1.0000   1.0000   1.0000   1.0000   1.0000   1.0000   1.0000   1.0000
        1.0000   1.0000   1.0000   1.0000   1.0000   1.0000   1.0000   1.0000
        1.0000   1.0000   1.0000   1.0000   1.0000   1.0000   1.0000   1.0000
        1.0000   1.0000   1.0000   1.0000   1.0000   1.0000   1.0000   1.0000
        1.0000   1.0000   1.0000   1.0000   1.0000   1.0000   1.0000   1.0000
        1.0000   1.0000   1.0000   1.0000   1.0000   1.0000   1.0000   1.0000
        1.0000   1.0000   1.0000   1.0000   1.0000   1.0000   1.0000   1.0000
        1.0000   1.0000   1.0000   1.0000   1.0000   1.0000   1.0000   1.0000
        1.0000   1.0000   1.0000   1.0000   1.0000   1.0000   1.0000   1.0000
        1.0000   1.0000   1.0000   1.0000   1.0000   1.0000   1.0000   1.0000
        1.0000   1.0000   1.0000   1.0000   1.0000   1.0000   1.0000   1.0000
        1.0000   1.0000   1.0000   1.0000   1.0000   1.0000   1.0000   1.0000
        1.0000   1.0000   1.0000   1.0000   1.0000   1.0000   1.0000   1.0000
        1.0000   1.0000   1.0000   1.0000   1.0000   1.0000   1.0000   1.0000
        1.0000   1.0000   1.0000   1.0000   1.0000   1.0000   1.0000   1.0000
        1.0000   1.0000   1.0000   1.0000   1.0000   1.0000   1.0000   1.0000
        1.0000   1.0000   1.0000   1.0000   1.0000   1.0000   1.0000   1.0000
        1.0000   1.0000   1.0000   1.0000   1.0000   1.0000   1.0000   1.0000
        1.0000   1.0000   1.0000   1.0000   1.0000   1.0000   1.0000   1.0000
        1.0000   1.0000   1.0000   1.0000   1.0000   1.0000   1.0000   1.0000
        1.0000   1.0000   0.0000   1.0000   0.0000   0.0000   0.0000   0.0000
        0.0000   0.0000   0.0000   0.0000   0.0000   0.0000   0.0000   0.0000
        0.0000   0.0000   0.0000   0.0000   0.0000   0.0000   0.0000   0.0000
        0.0000   0.0000   0.0000   0.0000   0.0000   0.0000   0.0000   0.0000
        0.0000   0.0000   0.0000   0.0000   0.0000   0.0000   0.0000   0.0000
        0.0000   0.0000   0.0000   0.0000   0.0000   0.0000   0.0000   0.0000
        0.0000   0.0000   0.0000   0.0000   0.0000

     Estimated max dynamical RAM per process >     122.32 MB

     Estimated total dynamical RAM >       7.65 GB
     Generating pointlists ...
     new r_m :   0.0336 (alat units)  1.1165 (a.u.) for type    1
     new r_m :   0.0327 (alat units)  1.0866 (a.u.) for type    2
     new r_m :   0.0334 (alat units)  1.1114 (a.u.) for type    3
     new r_m :   0.0327 (alat units)  1.0866 (a.u.) for type    4
     new r_m :   0.0334 (alat units)  1.1114 (a.u.) for type    5

     Check: negative core charge=   -0.000006

     Initial potential from superposition of free atoms

     starting charge  390.98597, renormalised to  391.00000

     negative rho (up, down):  5.500E-02 5.952E-02
     Starting wfcs are  392 randomized atomic wfcs
     Checking if some PAW data can be deallocated... 

     total cpu time spent up to now is        7.1 secs

     Self-consistent Calculation

     iteration #  1     ecut=    40.00 Ry     beta= 0.70
     CG style diagonalization
     ethr =  1.00E-02,  avg # of iterations =  3.1

     negative rho (up, down):  3.257E-01 8.128E-03

     total cpu time spent up to now is       41.5 secs

     total energy              =   -1933.41312034 Ry
     Harris-Foulkes estimate   =   -1946.47546739 Ry
     estimated scf accuracy    <      19.91059967 Ry

     total magnetization       =     1.00 Bohr mag/cell
     absolute magnetization    =     1.88 Bohr mag/cell

     iteration #  2     ecut=    40.00 Ry     beta= 0.70
     CG style diagonalization
     ethr =  5.09E-03,  avg # of iterations =  4.0

     negative rho (up, down):  3.615E-01 5.414E-03

     total cpu time spent up to now is       74.9 secs

     total energy              =   -1937.56869153 Ry
     Harris-Foulkes estimate   =   -1943.88401601 Ry
     estimated scf accuracy    <      12.32888048 Ry

     total magnetization       =     1.00 Bohr mag/cell
     absolute magnetization    =     1.57 Bohr mag/cell

     iteration #  3     ecut=    40.00 Ry     beta= 0.70
     CG style diagonalization
     ethr =  3.15E-03,  avg # of iterations =  3.8

     negative rho (up, down):  4.160E-01 4.729E-03

     total cpu time spent up to now is      106.3 secs

     total energy              =   -1940.09331151 Ry
     Harris-Foulkes estimate   =   -1940.55005329 Ry
     estimated scf accuracy    <       0.78000228 Ry

     total magnetization       =     1.00 Bohr mag/cell
     absolute magnetization    =     1.29 Bohr mag/cell

     iteration #  4     ecut=    40.00 Ry     beta= 0.70
     CG style diagonalization
     ethr =  1.99E-04,  avg # of iterations =  4.4

     negative rho (up, down):  4.585E-01 3.848E-03

     total cpu time spent up to now is      144.0 secs

     total energy              =   -1940.25345313 Ry
     Harris-Foulkes estimate   =   -1940.52696744 Ry
     estimated scf accuracy    <       0.73236396 Ry

     total magnetization       =     1.00 Bohr mag/cell
     absolute magnetization    =     1.39 Bohr mag/cell

     iteration #  5     ecut=    40.00 Ry     beta= 0.70
     CG style diagonalization
     c_bands:  2 eigenvalues not converged
     ethr =  1.87E-04,  avg # of iterations =  3.3

     negative rho (up, down):  4.709E-01 3.547E-03

     total cpu time spent up to now is      169.8 secs

     total energy              =   -1940.38463392 Ry
     Harris-Foulkes estimate   =   -1940.39946145 Ry
     estimated scf accuracy    <       0.05237514 Ry

     total magnetization       =     1.00 Bohr mag/cell
     absolute magnetization    =     1.22 Bohr mag/cell

     iteration #  6     ecut=    40.00 Ry     beta= 0.70
     CG style diagonalization
     c_bands:  3 eigenvalues not converged
     c_bands:  3 eigenvalues not converged
     ethr =  1.34E-05,  avg # of iterations =  4.1

     negative rho (up, down):  4.808E-01 3.685E-03

     total cpu time spent up to now is      204.3 secs

     total energy              =   -1940.39018810 Ry
     Harris-Foulkes estimate   =   -1940.39346335 Ry
     estimated scf accuracy    <       0.01362806 Ry

     total magnetization       =     1.00 Bohr mag/cell
     absolute magnetization    =     1.20 Bohr mag/cell

     iteration #  7     ecut=    40.00 Ry     beta= 0.70
     CG style diagonalization
     c_bands:  5 eigenvalues not converged
     c_bands:  3 eigenvalues not converged
     ethr =  3.49E-06,  avg # of iterations =  5.8

     negative rho (up, down):  4.841E-01 3.844E-03

     total cpu time spent up to now is      251.5 secs

     total energy              =   -1940.39336165 Ry
     Harris-Foulkes estimate   =   -1940.39381167 Ry
     estimated scf accuracy    <       0.00218074 Ry

     total magnetization       =     1.00 Bohr mag/cell
     absolute magnetization    =     1.18 Bohr mag/cell

     iteration #  8     ecut=    40.00 Ry     beta= 0.70
     CG style diagonalization
     c_bands:  4 eigenvalues not converged
     c_bands:  5 eigenvalues not converged
     ethr =  5.58E-07,  avg # of iterations =  4.0

     negative rho (up, down):  4.844E-01 3.889E-03

     total cpu time spent up to now is      286.2 secs

     total energy              =   -1940.39376142 Ry
     Harris-Foulkes estimate   =   -1940.39420865 Ry
     estimated scf accuracy    <       0.00127185 Ry

     total magnetization       =     1.00 Bohr mag/cell
     absolute magnetization    =     1.17 Bohr mag/cell

     iteration #  9     ecut=    40.00 Ry     beta= 0.70
     CG style diagonalization
     c_bands:  2 eigenvalues not converged
     c_bands:  3 eigenvalues not converged
     ethr =  3.25E-07,  avg # of iterations =  3.5

     negative rho (up, down):  4.844E-01 3.979E-03

     total cpu time spent up to now is      314.3 secs

     total energy              =   -1940.39401860 Ry
     Harris-Foulkes estimate   =   -1940.39405160 Ry
     estimated scf accuracy    <       0.00021130 Ry

     total magnetization       =     1.00 Bohr mag/cell
     absolute magnetization    =     1.17 Bohr mag/cell

     iteration # 10     ecut=    40.00 Ry     beta= 0.70
     CG style diagonalization
     ethr =  5.40E-08,  avg # of iterations =  3.7

     negative rho (up, down):  4.844E-01 4.028E-03

     total cpu time spent up to now is      344.2 secs

     total energy              =   -1940.39408584 Ry
     Harris-Foulkes estimate   =   -1940.39408459 Ry
     estimated scf accuracy    <       0.00003796 Ry

     total magnetization       =     1.00 Bohr mag/cell
     absolute magnetization    =     1.17 Bohr mag/cell

     iteration # 11     ecut=    40.00 Ry     beta= 0.70
     CG style diagonalization
     ethr =  9.71E-09,  avg # of iterations =  3.7

     negative rho (up, down):  4.844E-01 4.048E-03

     total cpu time spent up to now is      373.8 secs

     total energy              =   -1940.39409958 Ry
     Harris-Foulkes estimate   =   -1940.39410060 Ry
     estimated scf accuracy    <       0.00001178 Ry

     total magnetization       =     1.00 Bohr mag/cell
     absolute magnetization    =     1.17 Bohr mag/cell

     iteration # 12     ecut=    40.00 Ry     beta= 0.70
     CG style diagonalization
     ethr =  3.01E-09,  avg # of iterations =  3.6

     negative rho (up, down):  4.844E-01 4.052E-03

     total cpu time spent up to now is      402.3 secs

     total energy              =   -1940.39410366 Ry
     Harris-Foulkes estimate   =   -1940.39410284 Ry
     estimated scf accuracy    <       0.00000222 Ry

     total magnetization       =     1.00 Bohr mag/cell
     absolute magnetization    =     1.17 Bohr mag/cell

     iteration # 13     ecut=    40.00 Ry     beta= 0.70
     CG style diagonalization
     ethr =  5.69E-10,  avg # of iterations =  4.0

     negative rho (up, down):  4.844E-01 4.053E-03

     total cpu time spent up to now is      435.0 secs

     total energy              =   -1940.39410495 Ry
     Harris-Foulkes estimate   =   -1940.39410517 Ry
     estimated scf accuracy    <       0.00000140 Ry

     total magnetization       =     1.00 Bohr mag/cell
     absolute magnetization    =     1.17 Bohr mag/cell

     iteration # 14     ecut=    40.00 Ry     beta= 0.70
     CG style diagonalization
     ethr =  3.58E-10,  avg # of iterations =  3.3

     negative rho (up, down):  4.844E-01 4.046E-03

     total cpu time spent up to now is      461.1 secs

     total energy              =   -1940.39410515 Ry
     Harris-Foulkes estimate   =   -1940.39410523 Ry
     estimated scf accuracy    <       0.00000031 Ry

     total magnetization       =     1.00 Bohr mag/cell
     absolute magnetization    =     1.17 Bohr mag/cell

     iteration # 15     ecut=    40.00 Ry     beta= 0.70
     CG style diagonalization
     ethr =  8.01E-11,  avg # of iterations =  3.6

     negative rho (up, down):  4.844E-01 4.048E-03

     total cpu time spent up to now is      490.8 secs

     total energy              =   -1940.39410524 Ry
     Harris-Foulkes estimate   =   -1940.39410523 Ry
     estimated scf accuracy    <       0.00000003 Ry

     total magnetization       =     1.00 Bohr mag/cell
     absolute magnetization    =     1.17 Bohr mag/cell

     iteration # 16     ecut=    40.00 Ry     beta= 0.70
     CG style diagonalization
     ethr =  8.30E-12,  avg # of iterations =  3.9

     negative rho (up, down):  4.844E-01 4.050E-03

     total cpu time spent up to now is      524.0 secs

     total energy              =   -1940.39410526 Ry
     Harris-Foulkes estimate   =   -1940.39410526 Ry
     estimated scf accuracy    <       0.00000001 Ry

     total magnetization       =     1.00 Bohr mag/cell
     absolute magnetization    =     1.17 Bohr mag/cell

     iteration # 17     ecut=    40.00 Ry     beta= 0.70
     CG style diagonalization
     ethr =  2.88E-12,  avg # of iterations =  3.6

     negative rho (up, down):  4.844E-01 4.050E-03

     total cpu time spent up to now is      555.7 secs

     total energy              =   -1940.39410527 Ry
     Harris-Foulkes estimate   =   -1940.39410527 Ry
     estimated scf accuracy    <          2.6E-09 Ry

     total magnetization       =     1.00 Bohr mag/cell
     absolute magnetization    =     1.17 Bohr mag/cell

     iteration # 18     ecut=    40.00 Ry     beta= 0.70
     CG style diagonalization
     ethr =  6.57E-13,  avg # of iterations =  3.8

     negative rho (up, down):  4.844E-01 4.050E-03

     total cpu time spent up to now is      589.3 secs

     total energy              =   -1940.39410527 Ry
     Harris-Foulkes estimate   =   -1940.39410527 Ry
     estimated scf accuracy    <          1.4E-09 Ry

     total magnetization       =     1.00 Bohr mag/cell
     absolute magnetization    =     1.17 Bohr mag/cell

     iteration # 19     ecut=    40.00 Ry     beta= 0.70
     CG style diagonalization
     ethr =  3.66E-13,  avg # of iterations =  3.5

     negative rho (up, down):  4.844E-01 4.051E-03

     total cpu time spent up to now is      617.7 secs

     total energy              =   -1940.39410527 Ry
     Harris-Foulkes estimate   =   -1940.39410527 Ry
     estimated scf accuracy    <          6.9E-10 Ry

     total magnetization       =     1.00 Bohr mag/cell
     absolute magnetization    =     1.17 Bohr mag/cell

     iteration # 20     ecut=    40.00 Ry     beta= 0.70
     CG style diagonalization
     ethr =  1.76E-13,  avg # of iterations =  3.3

     negative rho (up, down):  4.844E-01 4.049E-03
 
     Magnetic moment per site:
     atom:    1    charge:    0.8514    magn:   -0.0000    constr:    0.0000
     atom:    2    charge:    0.8469    magn:    0.0003    constr:    0.0000
     atom:    3    charge:    0.8484    magn:   -0.0004    constr:    0.0000
     atom:    4    charge:    0.8497    magn:    0.0002    constr:    0.0000
     atom:    5    charge:    0.8523    magn:    0.0000    constr:    0.0000
     atom:    6    charge:    0.8510    magn:    0.0000    constr:    0.0000
     atom:    7    charge:    0.8519    magn:    0.0003    constr:    0.0000
     atom:    8    charge:    0.8509    magn:   -0.0000    constr:    0.0000
     atom:    9    charge:    0.8516    magn:   -0.0000    constr:    0.0000
     atom:   10    charge:    0.8449    magn:   -0.0009    constr:    0.0000
     atom:   11    charge:    0.8493    magn:   -0.0004    constr:    0.0000
     atom:   12    charge:    0.8515    magn:   -0.0004    constr:    0.0000
     atom:   13    charge:    0.8520    magn:    0.0002    constr:    0.0000
     atom:   14    charge:    0.8510    magn:    0.0000    constr:    0.0000
     atom:   15    charge:    0.8509    magn:    0.0003    constr:    0.0000
     atom:   16    charge:    0.8560    magn:   -0.0003    constr:    0.0000
     atom:   17    charge:    0.8626    magn:   -0.0018    constr:    0.0000
     atom:   18    charge:    0.8538    magn:   -0.0053    constr:    0.0000
     atom:   19    charge:    0.8550    magn:   -0.0018    constr:    0.0000
     atom:   20    charge:    0.8515    magn:   -0.0004    constr:    0.0000
     atom:   21    charge:    0.8523    magn:    0.0000    constr:    0.0000
     atom:   22    charge:    0.8475    magn:    0.0001    constr:    0.0000
     atom:   23    charge:    0.8443    magn:   -0.0004    constr:    0.0000
     atom:   24    charge:    0.8413    magn:    0.0009    constr:    0.0000
     atom:   25    charge:    1.5794    magn:    0.0322    constr:    0.0000
     atom:   26    charge:    0.8538    magn:   -0.0053    constr:    0.0000
     atom:   27    charge:    0.8493    magn:   -0.0004    constr:    0.0000
     atom:   28    charge:    0.8497    magn:    0.0002    constr:    0.0000
     atom:   29    charge:    0.8477    magn:    0.0000    constr:    0.0000
     atom:   30    charge:    0.8478    magn:    0.0005    constr:    0.0000
     atom:   31    charge:    0.8463    magn:    0.0018    constr:    0.0000
     atom:   32    charge:    0.8413    magn:    0.0009    constr:    0.0000
     atom:   33    charge:    0.8626    magn:   -0.0018    constr:    0.0000
     atom:   34    charge:    0.8449    magn:   -0.0009    constr:    0.0000
     atom:   35    charge:    0.8484    magn:   -0.0004    constr:    0.0000
     atom:   36    charge:    0.8473    magn:    0.0000    constr:    0.0000
     atom:   37    charge:    0.8466    magn:    0.0003    constr:    0.0000
     atom:   38    charge:    0.8478    magn:    0.0005    constr:    0.0000
     atom:   39    charge:    0.8443    magn:   -0.0004    constr:    0.0000
     atom:   40    charge:    0.8560    magn:   -0.0003    constr:    0.0000
     atom:   41    charge:    0.8516    magn:   -0.0000    constr:    0.0000
     atom:   42    charge:    0.8469    magn:    0.0003    constr:    0.0000
     atom:   43    charge:    0.8467    magn:    0.0002    constr:    0.0000
     atom:   44    charge:    0.8473    magn:    0.0000    constr:    0.0000
     atom:   45    charge:    0.8477    magn:    0.0000    constr:    0.0000
     atom:   46    charge:    0.8475    magn:    0.0001    constr:    0.0000
     atom:   47    charge:    0.8509    magn:    0.0003    constr:    0.0000
     atom:   48    charge:    0.8509    magn:   -0.0000    constr:    0.0000
     atom:   49    charge:    0.8514    magn:   -0.0000    constr:    0.0000
     atom:   50    charge:    2.6731    magn:    0.0004    constr:    0.0000
     atom:   51    charge:    2.6716    magn:    0.0003    constr:    0.0000
     atom:   52    charge:    2.6615    magn:    0.0047    constr:    0.0000
     atom:   53    charge:    2.6709    magn:    0.0034    constr:    0.0000
     atom:   54    charge:    2.6728    magn:    0.0001    constr:    0.0000
     atom:   55    charge:    2.6642    magn:    0.0002    constr:    0.0000
     atom:   56    charge:    2.6670    magn:   -0.0000    constr:    0.0000
     atom:   57    charge:    2.6689    magn:   -0.0001    constr:    0.0000
     atom:   58    charge:    2.6707    magn:    0.0034    constr:    0.0000
     atom:   59    charge:    2.6588    magn:    0.0241    constr:    0.0000
     atom:   60    charge:    2.6640    magn:    0.0002    constr:    0.0000
     atom:   61    charge:    2.6689    magn:    0.0106    constr:    0.0000
     atom:   62    charge:    2.6652    magn:    0.0053    constr:    0.0000
     atom:   63    charge:    2.6642    magn:    0.0002    constr:    0.0000
     atom:   64    charge:    2.6724    magn:    0.0003    constr:    0.0000
     atom:   65    charge:    2.6725    magn:    0.0041    constr:    0.0000
     atom:   66    charge:    2.6760    magn:    0.0004    constr:    0.0000
     atom:   67    charge:    1.7250    magn:    0.0431    constr:    0.0000
     atom:   68    charge:    2.6549    magn:    0.0749    constr:    0.0000
     atom:   69    charge:    2.6690    magn:    0.0106    constr:    0.0000
     atom:   70    charge:    2.6728    magn:    0.0001    constr:    0.0000
     atom:   71    charge:    2.6720    magn:    0.0003    constr:    0.0000
     atom:   72    charge:    2.6670    magn:   -0.0001    constr:    0.0000
     atom:   73    charge:    2.6628    magn:    0.0102    constr:    0.0000
     atom:   74    charge:    2.6272    magn:    0.1094    constr:    0.0000
     atom:   75    charge:    1.7250    magn:    0.0431    constr:    0.0000
     atom:   76    charge:    2.6640    magn:    0.0002    constr:    0.0000
     atom:   77    charge:    2.6709    magn:    0.0034    constr:    0.0000
     atom:   78    charge:    2.6698    magn:    0.0002    constr:    0.0000
     atom:   79    charge:    2.6654    magn:    0.0001    constr:    0.0000
     atom:   80    charge:    2.6593    magn:    0.0049    constr:    0.0000
     atom:   81    charge:    2.6628    magn:    0.0101    constr:    0.0000
     atom:   82    charge:    2.6760    magn:    0.0004    constr:    0.0000
     atom:   83    charge:    2.6588    magn:    0.0241    constr:    0.0000
     atom:   84    charge:    2.6615    magn:    0.0047    constr:    0.0000
     atom:   85    charge:    2.6685    magn:    0.0005    constr:    0.0000
     atom:   86    charge:    2.6680    magn:    0.0001    constr:    0.0000
     atom:   87    charge:    2.6654    magn:    0.0001    constr:    0.0000
     atom:   88    charge:    2.6670    magn:   -0.0001    constr:    0.0000
     atom:   89    charge:    2.6725    magn:    0.0041    constr:    0.0000
     atom:   90    charge:    2.6707    magn:    0.0034    constr:    0.0000
     atom:   91    charge:    2.6716    magn:    0.0003    constr:    0.0000
     atom:   92    charge:    2.6735    magn:    0.0001    constr:    0.0000
     atom:   93    charge:    2.6685    magn:    0.0005    constr:    0.0000
     atom:   94    charge:    2.6698    magn:    0.0002    constr:    0.0000
     atom:   95    charge:    2.6720    magn:    0.0003    constr:    0.0000
     atom:   96    charge:    2.6724    magn:    0.0003    constr:    0.0000
     atom:   97    charge:    2.6689    magn:   -0.0001    constr:    0.0000
     atom:   98    charge:    2.6731    magn:    0.0004    constr:    0.0000

     total cpu time spent up to now is      646.3 secs

     End of self-consistent calculation

 ------ SPIN UP ------------


          k = 0.0000 0.0000 0.0000 ( 77359 PWs)   bands (ev):

   -22.0127 -21.6836 -21.4208 -21.4024 -21.3637 -21.2989 -21.2744 -20.9089
   -20.6727 -20.6600 -20.6136 -20.5490 -20.5474 -20.4342 -20.2992 -20.2874
   -20.2612 -20.1353 -20.0802 -19.6157 -19.4540 -19.4316 -19.3932 -19.3895
   -19.3749 -19.3660 -19.3534 -19.3114 -19.2867 -19.1779 -19.1546 -19.0339
   -18.9708 -18.9630 -18.9310 -18.7673 -18.7664 -18.5639 -18.5437 -18.5392
   -18.5064 -18.4611 -18.4058 -18.3749 -18.3621 -18.3134 -18.3000 -16.8131
   -14.7623 -13.1920 -12.7938 -12.7879 -12.7431 -12.7190 -12.7151 -12.6340
   -12.5839 -12.5268 -12.5209 -12.4562 -12.3941 -12.1670 -12.0611 -12.0560
   -12.0158 -11.9819 -11.9326 -11.5823 -11.4226 -11.4211 -11.4071 -11.3946
   -11.3603 -11.3494 -11.3342 -11.3006 -11.2941 -11.0834 -11.0013 -10.8859
   -10.7239 -10.7079 -10.6638 -10.6282 -10.4704 -10.0768 -10.0195 -10.0043
    -9.9337  -9.8787  -9.7919  -9.4215  -9.3721  -9.3457  -9.3016  -9.2892
    -9.2790  -9.2048  -9.0785  -9.0302  -8.9620  -8.9085  -8.9063  -8.8977
    -8.8975  -8.8878  -8.8714  -8.8569  -8.8542  -8.8323  -8.8213  -8.8112
    -8.8012  -8.7713  -8.7587  -8.7251  -8.7137  -8.7034  -8.6434  -8.6204
    -8.4622  -8.4343  -8.2414  -8.1738  -8.1717  -8.0739  -8.0677  -8.0363
    -7.8428  -7.8352  -7.8069  -7.7847  -7.7254  -7.7135  -7.5834  -7.5133
    -7.4990  -7.4859  -7.4856  -7.4565  -7.4304  -7.3924  -7.3777  -7.3442
    -7.3382  -7.3155  -7.3150  -7.2250  -7.2227  -7.2222  -7.1508  -7.0368
    -7.0098  -6.9704  -6.8752  -6.7937  -6.6166  -6.4797  -6.3369  -6.1887
    -6.1777  -6.1539  -6.1271  -6.1018  -6.0627  -6.0568  -6.0508  -6.0296
    -6.0284  -6.0235  -6.0016  -5.9472  -5.8782  -5.7843  -5.7721  -5.6391
    -5.5387  -5.4473  -5.4451  -5.4382  -5.3055  -5.2237  -4.9631  -4.9550
    -4.8167  -4.8041  -4.7719  -4.7404  -4.6724  -4.6535  -4.5591  -4.5173
    -4.5012  -4.4730  -4.3886  -3.0800   0.0518   0.1783   0.6497   0.6631
     0.7079   0.7216   0.7272   0.7408   0.7735   0.7967   0.7980   0.7988
     0.8172   0.8332   0.8549   0.8695   0.8761   0.9136   0.9442   0.9449
     1.0290   1.1411   1.2062   1.2429   1.2768   1.3063   1.3139   1.3243
     1.3290   1.3422   1.3507   1.3751   1.4141   1.4282   1.4330   1.4409
     1.4495   1.4653   1.4901   1.8839   2.0616   2.0906   2.0936   2.1158
     2.1182   2.1468   2.1506   2.2110   2.2554

 ------ SPIN DOWN ----------


          k = 0.0000 0.0000 0.0000 ( 77359 PWs)   bands (ev):

   -21.8908 -21.6512 -21.4177 -21.3978 -21.3592 -21.2721 -21.2667 -20.8759
   -20.6663 -20.6481 -20.6100 -20.5416 -20.5368 -20.4257 -20.2938 -20.2795
   -20.2381 -20.1082 -20.0736 -19.5840 -19.4454 -19.4243 -19.3888 -19.3832
   -19.3707 -19.3624 -19.3402 -19.2906 -19.2827 -19.1609 -19.1437 -19.0259
   -18.9625 -18.9577 -18.9057 -18.7609 -18.7513 -18.5566 -18.5362 -18.5248
   -18.4964 -18.4547 -18.3987 -18.3646 -18.3565 -18.3021 -18.2717 -16.6222
   -14.6564 -13.1517 -12.7903 -12.7814 -12.7407 -12.7171 -12.7135 -12.6299
   -12.5792 -12.5227 -12.5171 -12.4444 -12.3882 -12.1597 -12.0561 -12.0516
   -12.0126 -11.9736 -11.9236 -11.5691 -11.4143 -11.4106 -11.4046 -11.3869
   -11.3585 -11.3406 -11.3291 -11.2905 -11.2859 -11.0632 -10.9887 -10.8784
   -10.7205 -10.7067 -10.6579 -10.6205 -10.4651 -10.0647 -10.0122  -9.9949
    -9.9228  -9.8647  -9.7817  -9.4129  -9.3365  -9.3255  -9.2938  -9.2844
    -9.2754  -9.2025  -9.0674  -8.9486  -8.9191  -8.9047  -8.9019  -8.8948
    -8.8919  -8.8818  -8.8613  -8.8534  -8.8481  -8.8205  -8.8181  -8.8051
    -8.7919  -8.7657  -8.7561  -8.7125  -8.6980  -8.6334  -8.6159  -8.6121
    -8.4577  -8.4166  -8.2387  -8.1713  -8.1699  -8.0641  -8.0512  -7.9184
    -7.8302  -7.8092  -7.7986  -7.7778  -7.7003  -7.6885  -7.5752  -7.5057
    -7.4926  -7.4818  -7.4552  -7.4368  -7.4294  -7.3890  -7.3723  -7.3337
    -7.3179  -7.3099  -7.2766  -7.2142  -7.2106  -7.1622  -7.1357  -7.0343
    -6.9962  -6.9673  -6.8567  -6.7770  -6.6063  -6.4717  -6.2344  -6.1827
    -6.1720  -6.1473  -6.1090  -6.0872  -6.0508  -6.0430  -6.0387  -6.0218
    -6.0149  -6.0028  -5.9445  -5.9378  -5.8176  -5.7646  -5.7626  -5.6311
    -5.5101  -5.4371  -5.4312  -5.3917  -5.2474  -5.1985  -4.9260  -4.9189
    -4.7829  -4.7791  -4.7532  -4.7193  -4.6565  -4.6060  -4.5415  -4.5070
    -4.4743  -4.4524  -4.0635  -2.8685   0.1799   0.2023   0.6697   0.6830
     0.7089   0.7273   0.7418   0.7443   0.7754   0.7969   0.7989   0.8037
     0.8181   0.8345   0.8584   0.8769   0.8799   0.9241   0.9507   0.9520
     1.0344   1.1632   1.2185   1.2556   1.2778   1.3066   1.3140   1.3288
     1.3343   1.3432   1.3587   1.3820   1.4180   1.4284   1.4330   1.4410
     1.4501   1.4656   1.4932   1.8856   2.0934   2.0945   2.1184   2.1192
     2.1279   2.2706   2.3371   2.3590   2.4443

     highest occupied, lowest unoccupied level (ev):    -3.0800   -4.0635

!    total energy              =   -1940.39410527 Ry
     Harris-Foulkes estimate   =   -1940.39410527 Ry
     estimated scf accuracy    <          5.6E-11 Ry

     total all-electron energy =     -7770.218582 Ry

     The total energy is the sum of the following terms:

     one-electron contribution =  -10656.68519965 Ry
     hartree contribution      =    5414.01544195 Ry
     xc contribution           =    -430.78444988 Ry
     ewald contribution        =    4376.51332412 Ry
     DFT-D3 Dispersion         =      -0.27035250 Ry
     one-center paw contrib.   =    -643.18286930 Ry

     total magnetization       =     1.00 Bohr mag/cell
     absolute magnetization    =     1.17 Bohr mag/cell

     convergence has been achieved in  20 iterations

     negative rho (up, down):  4.844E-01 4.049E-03

     Forces acting on atoms (cartesian axes, Ry/au):

     atom    1 type  1   force =    -0.00001465   -0.00001211    0.00000000
     atom    2 type  1   force =     0.00000686    0.00001821    0.00000000
     atom    3 type  1   force =    -0.00001677    0.00002804    0.00000000
     atom    4 type  1   force =    -0.00000778    0.00002151    0.00000000
     atom    5 type  1   force =     0.00002435   -0.00004399    0.00000000
     atom    6 type  1   force =     0.00005403   -0.00003812    0.00000000
     atom    7 type  1   force =    -0.00000086   -0.00000100    0.00000000
     atom    8 type  1   force =     0.00002542    0.00000681    0.00000000
     atom    9 type  1   force =     0.00000700    0.00000649    0.00000000
     atom   10 type  1   force =     0.00001239    0.00001470    0.00000000
     atom   11 type  1   force =    -0.00002326   -0.00001985    0.00000000
     atom   12 type  1   force =    -0.00002956    0.00001094    0.00000000
     atom   13 type  1   force =     0.00003460   -0.00002035    0.00000000
     atom   14 type  1   force =     0.00005970   -0.00002896    0.00000000
     atom   15 type  1   force =     0.00003317   -0.00000787    0.00000000
     atom   16 type  1   force =     0.00002271    0.00000661    0.00000000
     atom   17 type  1   force =     0.00002983   -0.00005300    0.00000000
     atom   18 type  1   force =    -0.00001428    0.00001789    0.00000000
     atom   19 type  1   force =    -0.00006422    0.00003881    0.00000000
     atom   20 type  1   force =    -0.00002182    0.00001929    0.00000000
     atom   21 type  1   force =     0.00005133   -0.00000016    0.00000000
     atom   22 type  1   force =     0.00003696   -0.00000673    0.00000000
     atom   23 type  1   force =    -0.00000497    0.00004868    0.00000000
     atom   24 type  1   force =     0.00003087    0.00001559    0.00000000
     atom   25 type  4   force =     0.00003294    0.00000954    0.00000000
     atom   26 type  1   force =    -0.00001332    0.00000645    0.00000000
     atom   27 type  1   force =     0.00001004    0.00002845    0.00000000
     atom   28 type  1   force =    -0.00002111   -0.00000494    0.00000000
     atom   29 type  1   force =    -0.00000833    0.00000434    0.00000000
     atom   30 type  1   force =    -0.00002619    0.00002359    0.00000000
     atom   31 type  1   force =    -0.00003664    0.00002345    0.00000000
     atom   32 type  1   force =     0.00000032   -0.00002617    0.00000000
     atom   33 type  1   force =     0.00005972    0.00000008    0.00000000
     atom   34 type  1   force =    -0.00000554   -0.00002192    0.00000000
     atom   35 type  1   force =    -0.00003102   -0.00000155    0.00000000
     atom   36 type  1   force =    -0.00003385   -0.00000957    0.00000000
     atom   37 type  1   force =    -0.00001623    0.00000943    0.00000000
     atom   38 type  1   force =    -0.00003349    0.00001156    0.00000000
     atom   39 type  1   force =    -0.00004615   -0.00001918    0.00000000
     atom   40 type  1   force =     0.00000212   -0.00002291    0.00000000
     atom   41 type  1   force =    -0.00000506   -0.00001220    0.00000000
     atom   42 type  1   force =    -0.00001344   -0.00001779    0.00000000
     atom   43 type  1   force =    -0.00005192    0.00002894    0.00000000
     atom   44 type  1   force =    -0.00000959    0.00003318    0.00000000
     atom   45 type  1   force =    -0.00000892    0.00000549    0.00000000
     atom   46 type  1   force =     0.00002385   -0.00002797    0.00000000
     atom   47 type  1   force =     0.00002267   -0.00002443    0.00000000
     atom   48 type  1   force =     0.00000383   -0.00002762    0.00000000
     atom   49 type  1   force =     0.00000157    0.00001625    0.00000000
     atom   50 type  2   force =    -0.00000916    0.00001749    0.00000000
     atom   51 type  2   force =     0.00003997   -0.00003805    0.00000000
     atom   52 type  2   force =     0.00000648   -0.00001596    0.00000000
     atom   53 type  2   force =    -0.00003083    0.00000182    0.00000000
     atom   54 type  2   force =    -0.00000328   -0.00003391    0.00000000
     atom   55 type  2   force =    -0.00000594   -0.00004136    0.00000000
     atom   56 type  2   force =    -0.00002850    0.00001726    0.00000000
     atom   57 type  2   force =    -0.00000674    0.00003689    0.00000000
     atom   58 type  2   force =     0.00001122    0.00001036    0.00000000
     atom   59 type  2   force =     0.00003801   -0.00006685    0.00000000
     atom   60 type  2   force =    -0.00001153   -0.00000790    0.00000000
     atom   61 type  2   force =    -0.00003888   -0.00001395    0.00000000
     atom   62 type  2   force =     0.00003281   -0.00001997    0.00000000
     atom   63 type  2   force =     0.00003243    0.00002651    0.00000000
     atom   64 type  2   force =     0.00001898    0.00005484    0.00000000
     atom   65 type  2   force =    -0.00003732    0.00000549    0.00000000
     atom   66 type  2   force =    -0.00000032   -0.00005502    0.00000000
     atom   67 type  3   force =     0.00005830   -0.00004272    0.00000000
     atom   68 type  2   force =    -0.00004502    0.00001912    0.00000000
     atom   69 type  2   force =    -0.00001138    0.00003961    0.00000000
     atom   70 type  2   force =     0.00002604    0.00002108    0.00000000
     atom   71 type  2   force =     0.00001365   -0.00000823    0.00000000
     atom   72 type  2   force =    -0.00006860   -0.00001755    0.00000000
     atom   73 type  2   force =    -0.00008936    0.00001562    0.00000000
     atom   74 type  2   force =    -0.00002111    0.00000497    0.00000000
     atom   75 type  5   force =     0.00005795   -0.00005325    0.00000000
     atom   76 type  2   force =    -0.00000303    0.00001657    0.00000000
     atom   77 type  2   force =    -0.00001872    0.00002798    0.00000000
     atom   78 type  2   force =    -0.00000036   -0.00001665    0.00000000
     atom   79 type  2   force =    -0.00000881   -0.00001774    0.00000000
     atom   80 type  2   force =    -0.00004191    0.00002408    0.00000000
     atom   81 type  2   force =    -0.00005554    0.00006524    0.00000000
     atom   82 type  2   force =     0.00005143    0.00002238    0.00000000
     atom   83 type  2   force =     0.00007857    0.00000627    0.00000000
     atom   84 type  2   force =     0.00001722    0.00000640    0.00000000
     atom   85 type  2   force =     0.00000033   -0.00002693    0.00000000
     atom   86 type  2   force =     0.00002556   -0.00001416    0.00000000
     atom   87 type  2   force =     0.00001092    0.00001646    0.00000000
     atom   88 type  2   force =    -0.00001864    0.00006721    0.00000000
     atom   89 type  2   force =    -0.00002114    0.00002820    0.00000000
     atom   90 type  2   force =     0.00000033   -0.00001276    0.00000000
     atom   91 type  2   force =     0.00005428   -0.00001285    0.00000000
     atom   92 type  2   force =     0.00000735   -0.00000262    0.00000000
     atom   93 type  2   force =     0.00002481    0.00001490    0.00000000
     atom   94 type  2   force =     0.00001596    0.00000918    0.00000000
     atom   95 type  2   force =     0.00001518   -0.00000811    0.00000000
     atom   96 type  2   force =    -0.00003716   -0.00004431    0.00000000
     atom   97 type  2   force =    -0.00003378   -0.00001233    0.00000000
     atom   98 type  2   force =    -0.00001803    0.00000133    0.00000000

     Total force =     0.000405     Total SCF correction =     0.000012


     Computing stress (Cartesian axis) and pressure


     negative rho (up, down):  4.844E-01 4.049E-03
          total   stress  (Ry/bohr**3)                   (kbar)     P=   -0.16
   0.00000007  -0.00000000   0.00000000          0.01     -0.00      0.00
  -0.00000000   0.00000006   0.00000000         -0.00      0.01      0.00
   0.00000000   0.00000000  -0.00000339          0.00      0.00     -0.50


     BFGS Geometry Optimization

     number of scf cycles    =   1
     number of bfgs steps    =   0

     enthalpy new            =   -1940.3941052680 Ry

     new trust radius        =       0.0000907187 bohr
     new conv_thr            =            1.0E-10 Ry

     new unit-cell volume =  36191.22911 a.u.^3 (  5362.98677 Ang^3 )
     density =      0.36351 g/cm^3

CELL_PARAMETERS (alat= 33.23461096)
   1.000285228   0.000429046   0.000000000
  -0.499771048   0.866486935   0.000000000
   0.000000000   0.000000000   1.137203616

ATOMIC_POSITIONS (crystal)
B        0.047299535   0.094774651   0.500000000
B        0.047403764   0.237897376   0.500000000
B        0.047369068   0.380880468   0.500000000
B        0.047276094   0.523670153   0.500000000
B        0.047753893   0.666563991   0.500000000
B        0.047968497   0.809580635   0.500000000
B        0.047704740   0.952295211   0.500000000
B        0.189895985   0.094335071   0.500000000
B        0.189418834   0.236827397   0.500000000
B        0.190387839   0.380962390   0.500000000
B        0.189772116   0.523394170   0.500000000
B        0.189910230   0.666645172   0.500000000
B        0.190479175   0.809520816   0.500000000
B        0.190419337   0.952031467   0.500000000
B        0.333138623   0.094238144   0.500000000
B        0.332437724   0.235902933   0.500000000
B        0.332212217   0.378166097   0.500000000
B        0.333066373   0.524645603   0.500000000
B        0.332237639   0.667762437   0.500000000
B        0.333354869   0.810089758   0.500000000
B        0.333436014   0.952246090   0.500000000
B        0.476251781   0.095181672   0.500000000
B        0.475903032   0.237861429   0.500000000
B        0.473938622   0.379410336   0.500000000
C2       0.476629647   0.523371197   0.500000000
B        0.475354607   0.666933704   0.500000000
B        0.476605890   0.810227857   0.500000000
B        0.476329860   0.952723882   0.500000000
B        0.618962488   0.095338587   0.500000000
B        0.618874473   0.238175642   0.500000000
B        0.618743947   0.381256116   0.500000000
B        0.620589731   0.526061556   0.500000000
B        0.621833885   0.667787781   0.500000000
B        0.619037594   0.809612095   0.500000000
B        0.619119541   0.952630894   0.500000000
B        0.761809154   0.095349241   0.500000000
B        0.761749359   0.238250635   0.500000000
B        0.761824358   0.381125537   0.500000000
B        0.762138552   0.524096988   0.500000000
B        0.764097000   0.667562275   0.500000000
B        0.763172514   0.810581100   0.500000000
B        0.762102577   0.952596182   0.500000000
B        0.904786552   0.095213409   0.500000000
B        0.904650736   0.238190829   0.500000000
B        0.904661400   0.381037520   0.500000000
B        0.904818317   0.523748232   0.500000000
B        0.905761835   0.666861379   0.500000000
B        0.905664848   0.810103968   0.500000000
B        0.905225295   0.952700412   0.500000000
N        0.094973919   0.047191893   0.500000000
N        0.094517027   0.189695257   0.500000000
N        0.094895239   0.333132250   0.500000000
N        0.094618084   0.476018177   0.500000000
N        0.094914509   0.618873568   0.500000000
N        0.095362158   0.761800416   0.500000000
N        0.095345270   0.904654742   0.500000000
N        0.237965610   0.047066057   0.500000000
N        0.237323403   0.189228079   0.500000000
N        0.236861964   0.331689717   0.500000000
N        0.237094274   0.476073574   0.500000000
N        0.237274922   0.619133131   0.500000000
N        0.238036866   0.761963110   0.500000000
N        0.238199582   0.904637854   0.500000000
N        0.381095969   0.047307911   0.500000000
N        0.380839569   0.189358489   0.500000000
N        0.380000977   0.330386592   0.500000000
C1       0.383095535   0.476000400   0.500000000
N        0.379682487   0.620317333   0.500000000
N        0.380866801   0.762725072   0.500000000
N        0.381126419   0.905085518   0.500000000
N        0.523895038   0.047857102   0.500000000
N        0.523761598   0.190605976   0.500000000
N        0.523331611   0.333797540   0.500000000
N        0.522386427   0.477613366   0.500000000
C3       0.523999231   0.616903992   0.500000000
N        0.523926387   0.762905793   0.500000000
N        0.523981814   0.905381960   0.500000000
N        0.666662796   0.047900797   0.500000000
N        0.666508514   0.190705481   0.500000000
N        0.666282554   0.333717439   0.500000000
N        0.666202460   0.476668304   0.500000000
N        0.669613423   0.619998918   0.500000000
N        0.668310369   0.763138153   0.500000000
N        0.666867797   0.905104851   0.500000000
N        0.809557682   0.047801757   0.500000000
N        0.809368920   0.190631100   0.500000000
N        0.809294519   0.333491482   0.500000000
N        0.809394016   0.476238381   0.500000000
N        0.810641531   0.619160403   0.500000000
N        0.810771997   0.762676632   0.500000000
N        0.810304791   0.905483022   0.500000000
N        0.952391145   0.047608895   0.500000000
N        0.952198281   0.190442346   0.500000000
N        0.952099241   0.333337214   0.500000000
N        0.952142908   0.476104954   0.500000000
N        0.952692098   0.618904024   0.500000000
N        0.952933961   0.762034389   0.500000000
N        0.952808148   0.905026115   0.500000000



     Writing output data file C2Cn.save/
     NEW-OLD atomic charge density approx. for the potential
     NEW k-points:
   0.0000000   0.0000000   0.0000000   1.0000000
   0.0000000   0.0000000   0.0000000   1.0000000

     Check: negative core charge=   -0.000006

     negative rho (up, down):  4.844E-01 1.955E-03
     extrapolated charge  391.00127, renormalised to  391.00000

     total cpu time spent up to now is      665.9 secs

     Self-consistent Calculation

     iteration #  1     ecut=    40.00 Ry     beta= 0.70
     CG style diagonalization
     ethr =  1.00E-06,  avg # of iterations =  2.0

     Threshold (ethr) on eigenvalues was too large:
     Diagonalizing with lowered threshold

     CG style diagonalization
     ethr =  8.46E-12,  avg # of iterations = 16.2

     negative rho (up, down):  4.844E-01 3.781E-03

     total cpu time spent up to now is      855.8 secs

     total energy              =   -1940.39410541 Ry
     Harris-Foulkes estimate   =   -1940.36054612 Ry
     estimated scf accuracy    <       0.00000009 Ry

     total magnetization       =     1.00 Bohr mag/cell
     absolute magnetization    =     1.17 Bohr mag/cell

     iteration #  2     ecut=    40.00 Ry     beta= 0.70
     CG style diagonalization
     ethr =  2.28E-11,  avg # of iterations =  4.1

     negative rho (up, down):  4.844E-01 3.867E-03

     total cpu time spent up to now is      891.6 secs

     total energy              =   -1940.39410542 Ry
     Harris-Foulkes estimate   =   -1940.39410551 Ry
     estimated scf accuracy    <       0.00000013 Ry

     total magnetization       =     1.00 Bohr mag/cell
     absolute magnetization    =     1.17 Bohr mag/cell

     iteration #  3     ecut=    40.00 Ry     beta= 0.70
     CG style diagonalization
     ethr =  2.28E-11,  avg # of iterations =  3.5

     negative rho (up, down):  4.844E-01 3.929E-03

     total cpu time spent up to now is      920.4 secs

     total energy              =   -1940.39410542 Ry
     Harris-Foulkes estimate   =   -1940.39410545 Ry
     estimated scf accuracy    <          9.8E-09 Ry

     total magnetization       =     1.00 Bohr mag/cell
     absolute magnetization    =     1.17 Bohr mag/cell

     iteration #  4     ecut=    40.00 Ry     beta= 0.70
     CG style diagonalization
     ethr =  2.51E-12,  avg # of iterations =  3.8

     negative rho (up, down):  4.844E-01 3.992E-03

     total cpu time spent up to now is      953.0 secs

     total energy              =   -1940.39410539 Ry
     Harris-Foulkes estimate   =   -1940.39410542 Ry
     estimated scf accuracy    <          4.3E-09 Ry

     total magnetization       =     1.00 Bohr mag/cell
     absolute magnetization    =     1.17 Bohr mag/cell

     iteration #  5     ecut=    40.00 Ry     beta= 0.70
     CG style diagonalization
     ethr =  1.09E-12,  avg # of iterations =  3.3

     negative rho (up, down):  4.844E-01 4.009E-03

     total cpu time spent up to now is      979.7 secs

     total energy              =   -1940.39410538 Ry
     Harris-Foulkes estimate   =   -1940.39410539 Ry
     estimated scf accuracy    <          1.3E-09 Ry

     total magnetization       =     1.00 Bohr mag/cell
     absolute magnetization    =     1.17 Bohr mag/cell

     iteration #  6     ecut=    40.00 Ry     beta= 0.70
     CG style diagonalization
     ethr =  3.34E-13,  avg # of iterations =  3.3

     negative rho (up, down):  4.844E-01 4.028E-03

     total cpu time spent up to now is     1006.5 secs

     total energy              =   -1940.39410537 Ry
     Harris-Foulkes estimate   =   -1940.39410538 Ry
     estimated scf accuracy    <          1.9E-10 Ry

     total magnetization       =     1.00 Bohr mag/cell
     absolute magnetization    =     1.17 Bohr mag/cell

     iteration #  7     ecut=    40.00 Ry     beta= 0.70
     CG style diagonalization
     ethr =  1.00E-13,  avg # of iterations =  3.2

     negative rho (up, down):  4.844E-01 4.035E-03
 
     Magnetic moment per site:
     atom:    1    charge:    0.8514    magn:   -0.0000    constr:    0.0000
     atom:    2    charge:    0.8469    magn:    0.0003    constr:    0.0000
     atom:    3    charge:    0.8484    magn:   -0.0004    constr:    0.0000
     atom:    4    charge:    0.8498    magn:    0.0002    constr:    0.0000
     atom:    5    charge:    0.8523    magn:    0.0000    constr:    0.0000
     atom:    6    charge:    0.8510    magn:    0.0000    constr:    0.0000
     atom:    7    charge:    0.8519    magn:    0.0003    constr:    0.0000
     atom:    8    charge:    0.8509    magn:   -0.0000    constr:    0.0000
     atom:    9    charge:    0.8517    magn:   -0.0000    constr:    0.0000
     atom:   10    charge:    0.8448    magn:   -0.0009    constr:    0.0000
     atom:   11    charge:    0.8493    magn:   -0.0004    constr:    0.0000
     atom:   12    charge:    0.8515    magn:   -0.0004    constr:    0.0000
     atom:   13    charge:    0.8519    magn:    0.0002    constr:    0.0000
     atom:   14    charge:    0.8510    magn:    0.0000    constr:    0.0000
     atom:   15    charge:    0.8509    magn:    0.0003    constr:    0.0000
     atom:   16    charge:    0.8560    magn:   -0.0003    constr:    0.0000
     atom:   17    charge:    0.8626    magn:   -0.0018    constr:    0.0000
     atom:   18    charge:    0.8538    magn:   -0.0053    constr:    0.0000
     atom:   19    charge:    0.8550    magn:   -0.0018    constr:    0.0000
     atom:   20    charge:    0.8515    magn:   -0.0004    constr:    0.0000
     atom:   21    charge:    0.8523    magn:    0.0000    constr:    0.0000
     atom:   22    charge:    0.8475    magn:    0.0001    constr:    0.0000
     atom:   23    charge:    0.8443    magn:   -0.0004    constr:    0.0000
     atom:   24    charge:    0.8413    magn:    0.0009    constr:    0.0000
     atom:   25    charge:    1.5795    magn:    0.0322    constr:    0.0000
     atom:   26    charge:    0.8538    magn:   -0.0053    constr:    0.0000
     atom:   27    charge:    0.8493    magn:   -0.0004    constr:    0.0000
     atom:   28    charge:    0.8498    magn:    0.0002    constr:    0.0000
     atom:   29    charge:    0.8477    magn:    0.0000    constr:    0.0000
     atom:   30    charge:    0.8477    magn:    0.0005    constr:    0.0000
     atom:   31    charge:    0.8463    magn:    0.0018    constr:    0.0000
     atom:   32    charge:    0.8413    magn:    0.0009    constr:    0.0000
     atom:   33    charge:    0.8626    magn:   -0.0018    constr:    0.0000
     atom:   34    charge:    0.8448    magn:   -0.0009    constr:    0.0000
     atom:   35    charge:    0.8484    magn:   -0.0004    constr:    0.0000
     atom:   36    charge:    0.8473    magn:    0.0000    constr:    0.0000
     atom:   37    charge:    0.8465    magn:    0.0003    constr:    0.0000
     atom:   38    charge:    0.8477    magn:    0.0005    constr:    0.0000
     atom:   39    charge:    0.8443    magn:   -0.0004    constr:    0.0000
     atom:   40    charge:    0.8560    magn:   -0.0003    constr:    0.0000
     atom:   41    charge:    0.8517    magn:   -0.0000    constr:    0.0000
     atom:   42    charge:    0.8469    magn:    0.0003    constr:    0.0000
     atom:   43    charge:    0.8467    magn:    0.0002    constr:    0.0000
     atom:   44    charge:    0.8473    magn:    0.0000    constr:    0.0000
     atom:   45    charge:    0.8477    magn:    0.0000    constr:    0.0000
     atom:   46    charge:    0.8475    magn:    0.0001    constr:    0.0000
     atom:   47    charge:    0.8509    magn:    0.0003    constr:    0.0000
     atom:   48    charge:    0.8509    magn:   -0.0000    constr:    0.0000
     atom:   49    charge:    0.8514    magn:   -0.0000    constr:    0.0000
     atom:   50    charge:    2.6731    magn:    0.0004    constr:    0.0000
     atom:   51    charge:    2.6716    magn:    0.0003    constr:    0.0000
     atom:   52    charge:    2.6615    magn:    0.0047    constr:    0.0000
     atom:   53    charge:    2.6709    magn:    0.0034    constr:    0.0000
     atom:   54    charge:    2.6728    magn:    0.0001    constr:    0.0000
     atom:   55    charge:    2.6642    magn:    0.0002    constr:    0.0000
     atom:   56    charge:    2.6670    magn:   -0.0000    constr:    0.0000
     atom:   57    charge:    2.6689    magn:   -0.0001    constr:    0.0000
     atom:   58    charge:    2.6707    magn:    0.0034    constr:    0.0000
     atom:   59    charge:    2.6588    magn:    0.0241    constr:    0.0000
     atom:   60    charge:    2.6640    magn:    0.0002    constr:    0.0000
     atom:   61    charge:    2.6690    magn:    0.0106    constr:    0.0000
     atom:   62    charge:    2.6652    magn:    0.0053    constr:    0.0000
     atom:   63    charge:    2.6642    magn:    0.0002    constr:    0.0000
     atom:   64    charge:    2.6724    magn:    0.0003    constr:    0.0000
     atom:   65    charge:    2.6725    magn:    0.0041    constr:    0.0000
     atom:   66    charge:    2.6761    magn:    0.0004    constr:    0.0000
     atom:   67    charge:    1.7250    magn:    0.0431    constr:    0.0000
     atom:   68    charge:    2.6549    magn:    0.0749    constr:    0.0000
     atom:   69    charge:    2.6690    magn:    0.0106    constr:    0.0000
     atom:   70    charge:    2.6728    magn:    0.0001    constr:    0.0000
     atom:   71    charge:    2.6720    magn:    0.0003    constr:    0.0000
     atom:   72    charge:    2.6670    magn:   -0.0001    constr:    0.0000
     atom:   73    charge:    2.6628    magn:    0.0101    constr:    0.0000
     atom:   74    charge:    2.6272    magn:    0.1094    constr:    0.0000
     atom:   75    charge:    1.7250    magn:    0.0431    constr:    0.0000
     atom:   76    charge:    2.6640    magn:    0.0002    constr:    0.0000
     atom:   77    charge:    2.6709    magn:    0.0034    constr:    0.0000
     atom:   78    charge:    2.6699    magn:    0.0002    constr:    0.0000
     atom:   79    charge:    2.6654    magn:    0.0001    constr:    0.0000
     atom:   80    charge:    2.6593    magn:    0.0049    constr:    0.0000
     atom:   81    charge:    2.6628    magn:    0.0101    constr:    0.0000
     atom:   82    charge:    2.6761    magn:    0.0004    constr:    0.0000
     atom:   83    charge:    2.6588    magn:    0.0241    constr:    0.0000
     atom:   84    charge:    2.6615    magn:    0.0047    constr:    0.0000
     atom:   85    charge:    2.6685    magn:    0.0005    constr:    0.0000
     atom:   86    charge:    2.6679    magn:    0.0001    constr:    0.0000
     atom:   87    charge:    2.6654    magn:    0.0001    constr:    0.0000
     atom:   88    charge:    2.6670    magn:   -0.0001    constr:    0.0000
     atom:   89    charge:    2.6725    magn:    0.0041    constr:    0.0000
     atom:   90    charge:    2.6707    magn:    0.0034    constr:    0.0000
     atom:   91    charge:    2.6716    magn:    0.0003    constr:    0.0000
     atom:   92    charge:    2.6735    magn:    0.0001    constr:    0.0000
     atom:   93    charge:    2.6685    magn:    0.0005    constr:    0.0000
     atom:   94    charge:    2.6699    magn:    0.0002    constr:    0.0000
     atom:   95    charge:    2.6720    magn:    0.0003    constr:    0.0000
     atom:   96    charge:    2.6724    magn:    0.0003    constr:    0.0000
     atom:   97    charge:    2.6689    magn:   -0.0001    constr:    0.0000
     atom:   98    charge:    2.6731    magn:    0.0004    constr:    0.0000

     total cpu time spent up to now is     1032.2 secs

     End of self-consistent calculation

 ------ SPIN UP ------------


          k = 0.0000 0.0000 0.0000 ( 77359 PWs)   bands (ev):

   -22.0128 -21.6836 -21.4209 -21.4023 -21.3636 -21.2989 -21.2744 -20.9089
   -20.6728 -20.6600 -20.6135 -20.5489 -20.5474 -20.4342 -20.2992 -20.2874
   -20.2612 -20.1354 -20.0802 -19.6158 -19.4541 -19.4316 -19.3931 -19.3895
   -19.3749 -19.3659 -19.3534 -19.3114 -19.2867 -19.1778 -19.1546 -19.0339
   -18.9709 -18.9630 -18.9310 -18.7672 -18.7663 -18.5639 -18.5436 -18.5392
   -18.5064 -18.4611 -18.4058 -18.3749 -18.3622 -18.3133 -18.3000 -16.8132
   -14.7623 -13.1921 -12.7938 -12.7879 -12.7431 -12.7190 -12.7151 -12.6339
   -12.5839 -12.5267 -12.5209 -12.4562 -12.3941 -12.1670 -12.0610 -12.0561
   -12.0157 -11.9819 -11.9326 -11.5824 -11.4226 -11.4211 -11.4072 -11.3946
   -11.3603 -11.3493 -11.3342 -11.3006 -11.2941 -11.0833 -11.0013 -10.8859
   -10.7238 -10.7079 -10.6639 -10.6283 -10.4705 -10.0769 -10.0195 -10.0043
    -9.9337  -9.8787  -9.7918  -9.4216  -9.3721  -9.3458  -9.3016  -9.2892
    -9.2790  -9.2048  -9.0785  -9.0303  -8.9621  -8.9085  -8.9064  -8.8977
    -8.8976  -8.8878  -8.8713  -8.8569  -8.8542  -8.8322  -8.8212  -8.8112
    -8.8012  -8.7713  -8.7587  -8.7251  -8.7137  -8.7034  -8.6435  -8.6204
    -8.4622  -8.4343  -8.2413  -8.1738  -8.1717  -8.0740  -8.0677  -8.0363
    -7.8429  -7.8352  -7.8068  -7.7846  -7.7254  -7.7135  -7.5835  -7.5134
    -7.4990  -7.4859  -7.4858  -7.4565  -7.4303  -7.3924  -7.3776  -7.3443
    -7.3382  -7.3155  -7.3150  -7.2250  -7.2226  -7.2222  -7.1508  -7.0367
    -7.0099  -6.9703  -6.8753  -6.7938  -6.6166  -6.4796  -6.3369  -6.1888
    -6.1778  -6.1538  -6.1272  -6.1018  -6.0627  -6.0568  -6.0508  -6.0296
    -6.0284  -6.0234  -6.0015  -5.9473  -5.8782  -5.7843  -5.7720  -5.6391
    -5.5388  -5.4473  -5.4451  -5.4382  -5.3055  -5.2237  -4.9631  -4.9550
    -4.8166  -4.8042  -4.7719  -4.7404  -4.6724  -4.6535  -4.5591  -4.5173
    -4.5012  -4.4729  -4.3886  -3.0799   0.0518   0.1783   0.6496   0.6632
     0.7079   0.7216   0.7272   0.7409   0.7735   0.7967   0.7980   0.7988
     0.8172   0.8332   0.8547   0.8694   0.8762   0.9137   0.9441   0.9450
     1.0289   1.1410   1.2061   1.2429   1.2768   1.3063   1.3139   1.3243
     1.3290   1.3422   1.3507   1.3751   1.4141   1.4282   1.4330   1.4409
     1.4495   1.4653   1.4901   1.8838   2.0615   2.0905   2.0935   2.1158
     2.1181   2.1466   2.1505   2.2108   2.2553

 ------ SPIN DOWN ----------


          k = 0.0000 0.0000 0.0000 ( 77359 PWs)   bands (ev):

   -21.8909 -21.6512 -21.4177 -21.3977 -21.3591 -21.2721 -21.2666 -20.8760
   -20.6663 -20.6481 -20.6099 -20.5416 -20.5368 -20.4257 -20.2939 -20.2795
   -20.2381 -20.1083 -20.0735 -19.5840 -19.4455 -19.4244 -19.3887 -19.3832
   -19.3707 -19.3623 -19.3402 -19.2905 -19.2827 -19.1609 -19.1437 -19.0259
   -18.9626 -18.9576 -18.9057 -18.7608 -18.7513 -18.5566 -18.5363 -18.5247
   -18.4963 -18.4547 -18.3986 -18.3645 -18.3566 -18.3020 -18.2718 -16.6223
   -14.6564 -13.1518 -12.7903 -12.7814 -12.7407 -12.7171 -12.7135 -12.6299
   -12.5793 -12.5226 -12.5171 -12.4444 -12.3882 -12.1596 -12.0560 -12.0517
   -12.0125 -11.9736 -11.9236 -11.5692 -11.4143 -11.4106 -11.4046 -11.3868
   -11.3585 -11.3405 -11.3291 -11.2905 -11.2860 -11.0632 -10.9888 -10.8785
   -10.7204 -10.7067 -10.6580 -10.6205 -10.4651 -10.0648 -10.0123  -9.9949
    -9.9228  -9.8648  -9.7817  -9.4129  -9.3365  -9.3255  -9.2937  -9.2844
[...]
     atom:   55    charge:    2.6642    magn:    0.0002    constr:    0.0000
     atom:   56    charge:    2.6670    magn:   -0.0000    constr:    0.0000
     atom:   57    charge:    2.6689    magn:   -0.0001    constr:    0.0000
     atom:   58    charge:    2.6707    magn:    0.0034    constr:    0.0000
     atom:   59    charge:    2.6588    magn:    0.0241    constr:    0.0000
     atom:   60    charge:    2.6640    magn:    0.0002    constr:    0.0000
     atom:   61    charge:    2.6689    magn:    0.0106    constr:    0.0000
     atom:   62    charge:    2.6652    magn:    0.0053    constr:    0.0000
     atom:   63    charge:    2.6642    magn:    0.0002    constr:    0.0000
     atom:   64    charge:    2.6724    magn:    0.0003    constr:    0.0000
     atom:   65    charge:    2.6725    magn:    0.0041    constr:    0.0000
     atom:   66    charge:    2.6761    magn:    0.0004    constr:    0.0000
     atom:   67    charge:    1.7250    magn:    0.0431    constr:    0.0000
     atom:   68    charge:    2.6549    magn:    0.0749    constr:    0.0000
     atom:   69    charge:    2.6689    magn:    0.0106    constr:    0.0000
     atom:   70    charge:    2.6728    magn:    0.0001    constr:    0.0000
     atom:   71    charge:    2.6720    magn:    0.0003    constr:    0.0000
     atom:   72    charge:    2.6670    magn:   -0.0001    constr:    0.0000
     atom:   73    charge:    2.6628    magn:    0.0101    constr:    0.0000
     atom:   74    charge:    2.6272    magn:    0.1094    constr:    0.0000
     atom:   75    charge:    1.7250    magn:    0.0431    constr:    0.0000
     atom:   76    charge:    2.6640    magn:    0.0002    constr:    0.0000
     atom:   77    charge:    2.6709    magn:    0.0034    constr:    0.0000
     atom:   78    charge:    2.6698    magn:    0.0002    constr:    0.0000
     atom:   79    charge:    2.6654    magn:    0.0001    constr:    0.0000
     atom:   80    charge:    2.6593    magn:    0.0049    constr:    0.0000
     atom:   81    charge:    2.6628    magn:    0.0101    constr:    0.0000
     atom:   82    charge:    2.6761    magn:    0.0004    constr:    0.0000
     atom:   83    charge:    2.6588    magn:    0.0241    constr:    0.0000
     atom:   84    charge:    2.6615    magn:    0.0047    constr:    0.0000
     atom:   85    charge:    2.6685    magn:    0.0005    constr:    0.0000
     atom:   86    charge:    2.6679    magn:    0.0001    constr:    0.0000
     atom:   87    charge:    2.6654    magn:    0.0001    constr:    0.0000
     atom:   88    charge:    2.6670    magn:   -0.0001    constr:    0.0000
     atom:   89    charge:    2.6725    magn:    0.0041    constr:    0.0000
     atom:   90    charge:    2.6707    magn:    0.0034    constr:    0.0000
     atom:   91    charge:    2.6716    magn:    0.0003    constr:    0.0000
     atom:   92    charge:    2.6734    magn:    0.0001    constr:    0.0000
     atom:   93    charge:    2.6685    magn:    0.0005    constr:    0.0000
     atom:   94    charge:    2.6698    magn:    0.0002    constr:    0.0000
     atom:   95    charge:    2.6720    magn:    0.0003    constr:    0.0000
     atom:   96    charge:    2.6724    magn:    0.0003    constr:    0.0000
     atom:   97    charge:    2.6689    magn:   -0.0001    constr:    0.0000
     atom:   98    charge:    2.6731    magn:    0.0004    constr:    0.0000

     total cpu time spent up to now is     3195.4 secs

     End of self-consistent calculation

 ------ SPIN UP ------------


          k = 0.0000 0.0000 0.0000 ( 77359 PWs)   bands (ev):

   -22.0130 -21.6836 -21.4209 -21.4022 -21.3636 -21.2989 -21.2744 -20.9088
   -20.6728 -20.6600 -20.6136 -20.5489 -20.5473 -20.4342 -20.2992 -20.2874
   -20.2611 -20.1354 -20.0802 -19.6158 -19.4541 -19.4316 -19.3931 -19.3895
   -19.3749 -19.3659 -19.3534 -19.3113 -19.2867 -19.1778 -19.1546 -19.0339
   -18.9709 -18.9630 -18.9310 -18.7673 -18.7664 -18.5640 -18.5437 -18.5392
   -18.5064 -18.4611 -18.4058 -18.3748 -18.3622 -18.3133 -18.3000 -16.8130
   -14.7623 -13.1921 -12.7938 -12.7879 -12.7431 -12.7189 -12.7151 -12.6339
   -12.5839 -12.5267 -12.5208 -12.4562 -12.3942 -12.1670 -12.0610 -12.0560
   -12.0157 -11.9819 -11.9326 -11.5824 -11.4227 -11.4211 -11.4072 -11.3946
   -11.3603 -11.3494 -11.3342 -11.3005 -11.2941 -11.0834 -11.0013 -10.8860
   -10.7238 -10.7079 -10.6639 -10.6282 -10.4705 -10.0769 -10.0195 -10.0043
    -9.9337  -9.8787  -9.7919  -9.4216  -9.3721  -9.3459  -9.3016  -9.2893
    -9.2790  -9.2048  -9.0785  -9.0304  -8.9621  -8.9086  -8.9064  -8.8977
    -8.8975  -8.8879  -8.8714  -8.8569  -8.8543  -8.8321  -8.8212  -8.8111
    -8.8012  -8.7713  -8.7587  -8.7252  -8.7137  -8.7033  -8.6435  -8.6204
    -8.4623  -8.4342  -8.2413  -8.1738  -8.1717  -8.0740  -8.0677  -8.0363
    -7.8429  -7.8352  -7.8068  -7.7847  -7.7253  -7.7135  -7.5834  -7.5134
    -7.4990  -7.4859  -7.4858  -7.4565  -7.4303  -7.3924  -7.3776  -7.3443
    -7.3381  -7.3155  -7.3150  -7.2250  -7.2227  -7.2223  -7.1508  -7.0368
    -7.0098  -6.9704  -6.8753  -6.7938  -6.6166  -6.4796  -6.3369  -6.1887
    -6.1778  -6.1539  -6.1272  -6.1018  -6.0627  -6.0568  -6.0508  -6.0295
    -6.0284  -6.0235  -6.0015  -5.9473  -5.8781  -5.7843  -5.7721  -5.6391
    -5.5387  -5.4473  -5.4451  -5.4382  -5.3055  -5.2237  -4.9632  -4.9551
    -4.8167  -4.8042  -4.7719  -4.7405  -4.6724  -4.6535  -4.5591  -4.5173
    -4.5012  -4.4730  -4.3886  -3.0799   0.0518   0.1783   0.6496   0.6631
     0.7079   0.7216   0.7271   0.7408   0.7735   0.7966   0.7980   0.7989
     0.8172   0.8332   0.8547   0.8694   0.8761   0.9136   0.9441   0.9449
     1.0288   1.1409   1.2061   1.2429   1.2768   1.3063   1.3139   1.3242
     1.3290   1.3422   1.3507   1.3751   1.4141   1.4282   1.4331   1.4409
     1.4495   1.4652   1.4901   1.8839   2.0613   2.0907   2.0936   2.1160
     2.1184   2.1465   2.1503   2.3322   2.3490

 ------ SPIN DOWN ----------


          k = 0.0000 0.0000 0.0000 ( 77359 PWs)   bands (ev):

   -21.8910 -21.6512 -21.4177 -21.3976 -21.3591 -21.2721 -21.2667 -20.8759
   -20.6664 -20.6481 -20.6100 -20.5415 -20.5367 -20.4257 -20.2939 -20.2795
   -20.2380 -20.1083 -20.0735 -19.5840 -19.4455 -19.4244 -19.3888 -19.3831
   -19.3706 -19.3622 -19.3403 -19.2905 -19.2827 -19.1608 -19.1437 -19.0259
   -18.9626 -18.9576 -18.9057 -18.7608 -18.7513 -18.5566 -18.5363 -18.5247
   -18.4964 -18.4547 -18.3986 -18.3645 -18.3566 -18.3021 -18.2717 -16.6221
   -14.6564 -13.1518 -12.7903 -12.7814 -12.7407 -12.7170 -12.7135 -12.6299
   -12.5792 -12.5226 -12.5171 -12.4444 -12.3883 -12.1596 -12.0560 -12.0516
   -12.0125 -11.9736 -11.9235 -11.5691 -11.4143 -11.4106 -11.4046 -11.3868
   -11.3585 -11.3406 -11.3292 -11.2905 -11.2859 -11.0632 -10.9888 -10.8785
   -10.7205 -10.7067 -10.6580 -10.6204 -10.4651 -10.0648 -10.0122  -9.9949
    -9.9228  -9.8648  -9.7817  -9.4129  -9.3366  -9.3255  -9.2938  -9.2844
    -9.2754  -9.2024  -9.0675  -8.9487  -8.9192  -8.9048  -8.9019  -8.8948
    -8.8919  -8.8818  -8.8613  -8.8534  -8.8481  -8.8204  -8.8181  -8.8051
    -8.7919  -8.7658  -8.7561  -8.7125  -8.6980  -8.6334  -8.6159  -8.6121
    -8.4578  -8.4165  -8.2387  -8.1712  -8.1698  -8.0642  -8.0512  -7.9184
    -7.8303  -7.8092  -7.7985  -7.7778  -7.7003  -7.6883  -7.5752  -7.5058
    -7.4927  -7.4819  -7.4552  -7.4368  -7.4293  -7.3890  -7.3723  -7.3337
    -7.3179  -7.3100  -7.2766  -7.2142  -7.2107  -7.1622  -7.1357  -7.0343
    -6.9962  -6.9673  -6.8568  -6.7771  -6.6063  -6.4716  -6.2344  -6.1827
    -6.1721  -6.1472  -6.1091  -6.0873  -6.0508  -6.0430  -6.0387  -6.0218
    -6.0149  -6.0028  -5.9444  -5.9378  -5.8176  -5.7646  -5.7626  -5.6311
    -5.5101  -5.4371  -5.4312  -5.3917  -5.2474  -5.1985  -4.9261  -4.9190
    -4.7830  -4.7791  -4.7533  -4.7193  -4.6566  -4.6060  -4.5415  -4.5070
    -4.4743  -4.4524  -4.0635  -2.8684   0.1799   0.2023   0.6696   0.6829
     0.7089   0.7273   0.7418   0.7442   0.7754   0.7968   0.7989   0.8036
     0.8181   0.8345   0.8583   0.8769   0.8797   0.9241   0.9507   0.9520
     1.0342   1.1630   1.2184   1.2556   1.2778   1.3066   1.3140   1.3288
     1.3343   1.3431   1.3586   1.3820   1.4180   1.4284   1.4330   1.4411
     1.4500   1.4656   1.4932   1.8856   2.0931   2.0949   2.1190   2.1252
     2.2694   2.3360   2.3523   2.3578   2.4466

     highest occupied, lowest unoccupied level (ev):    -3.0799   -4.0635

!    total energy              =   -1940.39410549 Ry
     Harris-Foulkes estimate   =   -1940.39410549 Ry
     estimated scf accuracy    <          4.6E-13 Ry

     total all-electron energy =     -7770.218582 Ry

     The total energy is the sum of the following terms:

     one-electron contribution =  -10656.58730562 Ry
     hartree contribution      =    5413.96592397 Ry
     xc contribution           =    -430.78351484 Ry
     ewald contribution        =    4376.46399569 Ry
     DFT-D3 Dispersion         =      -0.27035068 Ry
     one-center paw contrib.   =    -643.18285401 Ry

     total magnetization       =     1.00 Bohr mag/cell
     absolute magnetization    =     1.17 Bohr mag/cell

     convergence has been achieved in  23 iterations

     negative rho (up, down):  4.844E-01 4.022E-03

     Forces acting on atoms (cartesian axes, Ry/au):

     atom    1 type  1   force =     0.00000346   -0.00000331    0.00000000
     atom    2 type  1   force =     0.00000568   -0.00000574    0.00000000
     atom    3 type  1   force =     0.00000072   -0.00000384    0.00000000
     atom    4 type  1   force =    -0.00000642   -0.00001153    0.00000000
     atom    5 type  1   force =    -0.00000682   -0.00001419    0.00000000
     atom    6 type  1   force =     0.00000279   -0.00000653    0.00000000
     atom    7 type  1   force =     0.00000723   -0.00000488    0.00000000
     atom    8 type  1   force =     0.00000543   -0.00000576    0.00000000
     atom    9 type  1   force =     0.00000595   -0.00001641    0.00000000
     atom   10 type  1   force =     0.00000700   -0.00000847    0.00000000
     atom   11 type  1   force =    -0.00000583    0.00000073    0.00000000
     atom   12 type  1   force =    -0.00000308   -0.00000600    0.00000000
     atom   13 type  1   force =     0.00000472   -0.00000264    0.00000000
     atom   14 type  1   force =     0.00000709   -0.00000007    0.00000000
     atom   15 type  1   force =     0.00000650    0.00000498    0.00000000
     atom   16 type  1   force =     0.00000088   -0.00000924    0.00000000
     atom   17 type  1   force =     0.00000422   -0.00000284    0.00000000
     atom   18 type  1   force =     0.00000501    0.00000301    0.00000000
     atom   19 type  1   force =    -0.00000501    0.00000411    0.00000000
     atom   20 type  1   force =     0.00000517    0.00000519    0.00000000
     atom   21 type  1   force =     0.00000937    0.00001262    0.00000000
     atom   22 type  1   force =     0.00000164    0.00001251    0.00000000
     atom   23 type  1   force =    -0.00001144    0.00000292    0.00000000
     atom   24 type  1   force =    -0.00001691    0.00000380    0.00000000
     atom   25 type  4   force =     0.00000851    0.00001414    0.00000000
     atom   26 type  1   force =     0.00000588   -0.00000412    0.00000000
     atom   27 type  1   force =    -0.00000075    0.00000353    0.00000000
     atom   28 type  1   force =     0.00000764    0.00001060    0.00000000
     atom   29 type  1   force =    -0.00000084    0.00000643    0.00000000
     atom   30 type  1   force =    -0.00001262    0.00000683    0.00000000
     atom   31 type  1   force =    -0.00001929    0.00001268    0.00000000
     atom   32 type  1   force =    -0.00001257    0.00001860    0.00000000
     atom   33 type  1   force =     0.00000401   -0.00000242    0.00000000
     atom   34 type  1   force =     0.00001156   -0.00000416    0.00000000
     atom   35 type  1   force =     0.00000512    0.00000005    0.00000000
     atom   36 type  1   force =    -0.00000292    0.00000112    0.00000000
     atom   37 type  1   force =    -0.00000581    0.00000312    0.00000000
     atom   38 type  1   force =    -0.00001256    0.00000799    0.00000000
     atom   39 type  1   force =    -0.00000931    0.00000920    0.00000000
     atom   40 type  1   force =     0.00000648    0.00000390    0.00000000
     atom   41 type  1   force =     0.00001531    0.00000107    0.00000000
     atom   42 type  1   force =     0.00000695   -0.00000369    0.00000000
     atom   43 type  1   force =    -0.00000198    0.00000041    0.00000000
     atom   44 type  1   force =    -0.00000307    0.00000150    0.00000000
     atom   45 type  1   force =    -0.00000667   -0.00000220    0.00000000
     atom   46 type  1   force =    -0.00001064   -0.00000751    0.00000000
     atom   47 type  1   force =    -0.00000200   -0.00000801    0.00000000
     atom   48 type  1   force =     0.00000568   -0.00000308    0.00000000
     atom   49 type  1   force =     0.00000356   -0.00000267    0.00000000
     atom   50 type  2   force =     0.00000620   -0.00000671    0.00000000
     atom   51 type  2   force =    -0.00000110   -0.00000028    0.00000000
     atom   52 type  2   force =     0.00000781    0.00000562    0.00000000
     atom   53 type  2   force =     0.00000380   -0.00000280    0.00000000
     atom   54 type  2   force =    -0.00000181   -0.00000259    0.00000000
     atom   55 type  2   force =     0.00001328   -0.00000790    0.00000000
     atom   56 type  2   force =     0.00001800   -0.00001000    0.00000000
     atom   57 type  2   force =     0.00001229   -0.00001082    0.00000000
     atom   58 type  2   force =     0.00000418   -0.00000859    0.00000000
     atom   59 type  2   force =     0.00000114    0.00000291    0.00000000
     atom   60 type  2   force =     0.00000498   -0.00000236    0.00000000
     atom   61 type  2   force =    -0.00000255   -0.00000236    0.00000000
     atom   62 type  2   force =    -0.00000211    0.00000074    0.00000000
     atom   63 type  2   force =     0.00001316   -0.00000736    0.00000000
     atom   64 type  2   force =     0.00000727   -0.00000320    0.00000000
     atom   65 type  2   force =     0.00000443    0.00000073    0.00000000
     atom   66 type  2   force =     0.00000155    0.00000059    0.00000000
     atom   67 type  3   force =    -0.00001904   -0.00000945    0.00000000
     atom   68 type  2   force =    -0.00000682   -0.00000021    0.00000000
     atom   69 type  2   force =    -0.00000152    0.00000304    0.00000000
     atom   70 type  2   force =     0.00000075    0.00000337    0.00000000
     atom   71 type  2   force =    -0.00000046    0.00000766    0.00000000
     atom   72 type  2   force =    -0.00000143    0.00001782    0.00000000
     atom   73 type  2   force =    -0.00000232    0.00001029    0.00000000
     atom   74 type  2   force =    -0.00000388   -0.00000247    0.00000000
     atom   75 type  5   force =    -0.00000674    0.00000476    0.00000000
     atom   76 type  2   force =     0.00000149   -0.00000129    0.00000000
     atom   77 type  2   force =     0.00000298   -0.00000095    0.00000000
     atom   78 type  2   force =    -0.00000432    0.00000339    0.00000000
     atom   79 type  2   force =    -0.00001139    0.00001324    0.00000000
     atom   80 type  2   force =    -0.00002082    0.00001188    0.00000000
     atom   81 type  2   force =    -0.00000866   -0.00000609    0.00000000
     atom   82 type  2   force =     0.00000252   -0.00000539    0.00000000
     atom   83 type  2   force =    -0.00000079    0.00000109    0.00000000
     atom   84 type  2   force =    -0.00000128   -0.00000690    0.00000000
     atom   85 type  2   force =    -0.00000507    0.00000263    0.00000000
     atom   86 type  2   force =    -0.00000814    0.00000516    0.00000000
     atom   87 type  2   force =    -0.00001669    0.00000329    0.00000000
     atom   88 type  2   force =    -0.00001542   -0.00000830    0.00000000
     atom   89 type  2   force =     0.00000311   -0.00000476    0.00000000
     atom   90 type  2   force =     0.00001195    0.00000204    0.00000000
     atom   91 type  2   force =     0.00000092    0.00000294    0.00000000
     atom   92 type  2   force =    -0.00000583    0.00000424    0.00000000
     atom   93 type  2   force =    -0.00000397    0.00000412    0.00000000
     atom   94 type  2   force =    -0.00000405    0.00000222    0.00000000
     atom   95 type  2   force =    -0.00000625   -0.00000377    0.00000000
     atom   96 type  2   force =     0.00000712   -0.00000484    0.00000000
     atom   97 type  2   force =     0.00001678   -0.00000513    0.00000000
     atom   98 type  2   force =     0.00000975   -0.00000089    0.00000000

     Total force =     0.000105     Total SCF correction =     0.000001


     Computing stress (Cartesian axis) and pressure


     negative rho (up, down):  4.844E-01 4.022E-03
          total   stress  (Ry/bohr**3)                   (kbar)     P=   -0.17
   0.00000001  -0.00000000   0.00000000          0.00     -0.00      0.00
  -0.00000000   0.00000001   0.00000000         -0.00      0.00      0.00
   0.00000000   0.00000000  -0.00000339          0.00      0.00     -0.50


     Writing output data file C2Cn.save/
 
     init_run     :      8.27s CPU      8.57s WALL (       2 calls)
     electrons    :   3064.63s CPU   3091.79s WALL (       6 calls)
     update_pot   :     12.17s CPU     12.25s WALL (       4 calls)
     forces       :     21.00s CPU     21.48s WALL (       6 calls)
     stress       :     67.78s CPU     68.22s WALL (       6 calls)

     Called by init_run:
     wfcinit      :      3.19s CPU      3.35s WALL (       2 calls)
     potinit      :      1.79s CPU      1.82s WALL (       2 calls)
     hinit0       :      2.47s CPU      2.52s WALL (       2 calls)

     Called by electrons:
     c_bands      :   2985.23s CPU   3008.26s WALL (      79 calls)
     sum_band     :     40.49s CPU     41.93s WALL (      79 calls)
     v_of_rho     :     13.90s CPU     14.26s WALL (      81 calls)
     newd         :      4.22s CPU      5.20s WALL (      81 calls)
     PAW_pot      :     15.11s CPU     15.25s WALL (      85 calls)
     mix_rho      :      1.16s CPU      1.30s WALL (      79 calls)

     Called by c_bands:
     init_us_2    :      1.53s CPU      1.60s WALL (     352 calls)
     rcgdiagg     :   2907.55s CPU   2928.98s WALL (     174 calls)
     wfcrot       :     78.57s CPU     79.93s WALL (     158 calls)

     Called by sum_band:
     sum_band:bec :      0.08s CPU      0.08s WALL (     166 calls)
     addusdens    :      4.17s CPU      5.19s WALL (      79 calls)

     Called by *cgdiagg:
     h_psi        :   1262.25s CPU   1272.18s WALL (  134492 calls)
     s_psi        :    411.87s CPU    416.21s WALL (  268826 calls)
     rdiaghg      :      2.60s CPU      2.69s WALL (     158 calls)

     Called by h_psi:
     h_psi:pot    :   1261.04s CPU   1270.95s WALL (  134492 calls)
     h_psi:calbec :    549.44s CPU    553.03s WALL (  134492 calls)
     vloc_psi     :    486.16s CPU    490.78s WALL (  134492 calls)
     add_vuspsi   :    224.24s CPU    226.28s WALL (  134492 calls)
     hs_1psi      :   1404.64s CPU   1415.68s WALL (  134334 calls)
     s_1psi       :    669.04s CPU    673.03s WALL (  134334 calls)

     General routines
     calbec       :   1028.43s CPU   1035.16s WALL (  269052 calls)
     fft          :     12.69s CPU     12.83s WALL (    1575 calls)
     ffts         :      0.58s CPU      0.59s WALL (     158 calls)
     fftw         :    481.18s CPU    485.72s WALL (  327554 calls)
 
     Parallel routines
     fft_scatt_xy :     38.58s CPU     38.84s WALL (  329287 calls)
     fft_scatt_yz :    176.49s CPU    178.43s WALL (  329287 calls)
 
     PWSCF        :  52m59.35s CPU  53m31.97s WALL

 
   This run was terminated on:  22:28:26   1Jul2021            

=------------------------------------------------------------------------------=
   JOB DONE.
=------------------------------------------------------------------------------=
