
     Program PWSCF v.6.4.1 starts on  9Jun2021 at  0: 1:57 

     This program is part of the open-source Quantum ESPRESSO suite
     for quantum simulation of materials; please cite
         "P. Giannozzi et al., J. Phys.:Condens. Matter 21 395502 (2009);
         "P. Giannozzi et al., J. Phys.:Condens. Matter 29 465901 (2017);
          URL http://www.quantum-espresso.org", 
     in publications or presentations arising from this work. More details at
     http://www.quantum-espresso.org/quote

     Parallel version (MPI), running on    64 processors

     MPI processes distributed on     2 nodes
     R & G space division:  proc/nbgrp/npool/nimage =      64
     Waiting for input...
     Reading input from standard input

     Current dimensions of program PWSCF are:
     Max number of different atomic species (ntypx) = 10
     Max number of k-points (npk) =  40000
     Max angular momentum in pseudopotentials (lmaxx) =  3
               file N.pbe-n-kjpaw_psl.1.0.0.UPF: wavefunction(s)  2S renormalized
               file C.pbe-n-kjpaw_psl.1.0.0.UPF: wavefunction(s)  2S 2P renormalized
               file C.pbe-n-kjpaw_psl.1.0.0.UPF: wavefunction(s)  2S 2P renormalized
               file C.pbe-n-kjpaw_psl.1.0.0.UPF: wavefunction(s)  2S 2P renormalized

     --------------------------------------------
     Parameters for DFT-D3 Dispersion Correction:
     --------------------------------------------
       Reference C6 values for interpolation: 

         atom   Coordination number   C6
         B          0.000           214.36
         B          0.971           150.74
         B          1.944           106.23
         B          2.913            62.89
         B          4.586            56.06
         C1         0.000            98.23
         C1         0.987            86.49
         C1         1.998            58.72
         C1         2.999            51.56
         C1         3.984            36.41
         C2         0.000            98.23
         C2         0.987            86.49
         C2         1.998            58.72
         C2         2.999            51.56
         C2         3.984            36.41
         C3         0.000            98.23
         C3         0.987            86.49
         C3         1.998            58.72
         C3         2.999            51.56
         C3         3.984            36.41
         N          0.000            50.54
         N          0.994            44.25
         N          2.014            39.35
         N          2.990            31.16

       Values used:

         atom   Coordination number  R0_AB[au]  C6      C8
         B          3.325            3.039     62.90   2506.24
         B          3.317            3.039     62.90   2506.44
         B          3.317            3.039     62.90   2506.43
         B          3.325            3.039     62.90   2506.24
         B          3.327            3.039     62.90   2506.21
         B          3.324            3.039     62.90   2506.27
         B          3.326            3.039     62.90   2506.22
         B          3.325            3.039     62.90   2506.26
         B          3.323            3.039     62.90   2506.30
         B          3.303            3.039     62.91   2506.76
         B          3.322            3.039     62.90   2506.32
         B          3.329            3.039     62.90   2506.15
         B          3.325            3.039     62.90   2506.24
         B          3.324            3.039     62.90   2506.27
         B          3.325            3.039     62.90   2506.26
         B          3.327            3.039     62.90   2506.21
         B          3.297            3.039     62.91   2506.89
         B          3.296            3.039     62.91   2506.90
         B          3.336            3.039     62.89   2505.99
         B          3.329            3.039     62.90   2506.15
         B          3.327            3.039     62.90   2506.21
         B          3.323            3.039     62.90   2506.31
         B          3.318            3.039     62.90   2506.41
         B          3.314            3.039     62.90   2506.51
         C2         3.249            2.750     49.43   1429.65
         B          3.296            3.039     62.91   2506.90
         B          3.322            3.039     62.90   2506.32
         B          3.325            3.039     62.90   2506.24
         B          3.321            3.039     62.90   2506.36
         B          3.319            3.039     62.90   2506.39
         B          3.314            3.039     62.90   2506.50
         B          3.314            3.039     62.90   2506.51
         B          3.297            3.039     62.91   2506.89
         B          3.303            3.039     62.91   2506.76
         B          3.317            3.039     62.90   2506.43
         B          3.316            3.039     62.90   2506.45
         B          3.318            3.039     62.90   2506.42
         B          3.319            3.039     62.90   2506.39
         B          3.318            3.039     62.90   2506.41
         B          3.327            3.039     62.90   2506.21
         B          3.323            3.039     62.90   2506.30
         B          3.317            3.039     62.90   2506.44
         B          3.319            3.039     62.90   2506.40
         B          3.316            3.039     62.90   2506.45
         B          3.321            3.039     62.90   2506.36
         B          3.323            3.039     62.90   2506.31
         B          3.325            3.039     62.90   2506.26
         B          3.325            3.039     62.90   2506.26
         B          3.325            3.039     62.90   2506.24
         N          3.129            2.478     31.22    688.74
         N          3.128            2.478     31.22    688.75
         N          3.125            2.478     31.22    688.79
         N          3.128            2.478     31.22    688.75
         N          3.130            2.478     31.22    688.73
         N          3.129            2.478     31.22    688.75
         N          3.129            2.478     31.22    688.75
         N          3.129            2.478     31.22    688.75
         N          3.129            2.478     31.22    688.74
         N          3.124            2.478     31.22    688.79
         N          3.123            2.478     31.22    688.80
         N          3.132            2.478     31.22    688.72
         N          3.130            2.478     31.22    688.74
         N          3.129            2.478     31.22    688.75
         N          3.130            2.478     31.22    688.74
         N          3.129            2.478     31.22    688.74
         N          3.132            2.478     31.22    688.71
         C1         3.192            2.750     50.15   1450.30
         N          3.134            2.478     31.22    688.70
         N          3.132            2.478     31.22    688.72
         N          3.130            2.478     31.22    688.73
         N          3.129            2.478     31.22    688.75
         N          3.127            2.478     31.22    688.76
         N          3.126            2.478     31.22    688.78
         N          3.155            2.478     31.21    688.52
         C3         3.192            2.750     50.15   1450.30
         N          3.123            2.478     31.22    688.80
         N          3.128            2.478     31.22    688.75
         N          3.127            2.478     31.22    688.77
         N          3.127            2.478     31.22    688.76
         N          3.126            2.478     31.22    688.77
         N          3.126            2.478     31.22    688.78
         N          3.132            2.478     31.22    688.71
         N          3.124            2.478     31.22    688.79
         N          3.125            2.478     31.22    688.79
         N          3.126            2.478     31.22    688.77
         N          3.126            2.478     31.22    688.77
         N          3.127            2.478     31.22    688.76
         N          3.127            2.478     31.22    688.76
         N          3.129            2.478     31.22    688.74
         N          3.129            2.478     31.22    688.74
         N          3.128            2.478     31.22    688.75
         N          3.129            2.478     31.22    688.74
         N          3.126            2.478     31.22    688.77
         N          3.127            2.478     31.22    688.77
         N          3.129            2.478     31.22    688.75
         N          3.130            2.478     31.22    688.74
         N          3.129            2.478     31.22    688.75
         N          3.129            2.478     31.22    688.74

         Molecular C6 ( Ry / a.u.^6 ) =    437699.24


     gamma-point specific algorithms are used

     Subspace diagonalization in iterative solution of the eigenvalue problem:
     one sub-group per band group will be used
     scalapack distributed-memory algorithm (size of sub-group:  5*  5 procs)

     Message from routine setup:
     DEPRECATED: symmetry with ibrav=0, use correct ibrav instead
 
     Parallelization info
     --------------------
     sticks:   dense  smooth     PW     G-vecs:    dense   smooth      PW
     Min         189     189     46                19306    19306    2402
     Max         192     192     48                19326    19326    2424
     Sum       12161   12161   3049              1236517  1236517  154657
 


     bravais-lattice index     =            0
     lattice parameter (alat)  =      33.2346  a.u.
     unit-cell volume          =   36185.0320 (a.u.)^3
     number of atoms/cell      =           98
     number of atomic types    =            5
     number of electrons       =       391.00
     number of Kohn-Sham states=          245
     kinetic-energy cutoff     =      40.0000  Ry
     charge density cutoff     =     160.0000  Ry
     convergence threshold     =      1.0E-10
     mixing beta               =       0.7000
     number of iterations used =            8  plain     mixing
     Exchange-correlation      = SLA PW PBX PBC ( 1  4  3  4 0 0)
     Using LIBXC version       =    4   3   4
     nstep                     =           50


     celldm(1)=  33.234611  celldm(2)=   0.000000  celldm(3)=   0.000000
     celldm(4)=   0.000000  celldm(5)=   0.000000  celldm(6)=   0.000000

     crystal axes: (cart. coord. in units of alat)
               a(1) = (   1.000652  -0.000354   0.000000 )  
               a(2) = (  -0.500632   0.866413   0.000000 )  
               a(3) = (   0.000000   0.000000   1.137204 )  

     reciprocal axes: (cart. coord. in units 2 pi/alat)
               b(1) = (  0.999553  0.577564  0.000000 )  
               b(2) = (  0.000408  1.154420  0.000000 )  
               b(3) = (  0.000000  0.000000  0.879350 )  


     PseudoPot. # 1 for B  read from file:
     ./pseudo/B.pbe-n-kjpaw_psl.1.0.0.UPF
     MD5 check sum: 8c825a5969375aca5c2c6ad5945b3059
     Pseudo is Projector augmented-wave + core cor, Zval =  3.0
     Generated using "atomic" code by A. Dal Corso v.6.3
     Shape of augmentation charge: PSQ
     Using radial grid of 1059 points,  4 beta functions with: 
                l(1) =   0
                l(2) =   0
                l(3) =   1
                l(4) =   1
     Q(r) pseudized with 0 coefficients 


     PseudoPot. # 2 for N  read from file:
     ./pseudo/N.pbe-n-kjpaw_psl.1.0.0.UPF
     MD5 check sum: 14c48229446f9f2d411169a3abcbc3fa
     Pseudo is Projector augmented-wave + core cor, Zval =  5.0
     Generated using "atomic" code by A. Dal Corso v.6.3
     Shape of augmentation charge: PSQ
     Using radial grid of 1085 points,  4 beta functions with: 
                l(1) =   0
                l(2) =   0
                l(3) =   1
                l(4) =   1
     Q(r) pseudized with 0 coefficients 


     PseudoPot. # 3 for C  read from file:
     ./pseudo/C.pbe-n-kjpaw_psl.1.0.0.UPF
     MD5 check sum: 5f16ad9a65e90284d1d834d4ab3b0f7d
     Pseudo is Projector augmented-wave + core cor, Zval =  4.0
     Generated using "atomic" code by A. Dal Corso v.6.3
     Shape of augmentation charge: PSQ
     Using radial grid of 1073 points,  4 beta functions with: 
                l(1) =   0
                l(2) =   0
                l(3) =   1
                l(4) =   1
     Q(r) pseudized with 0 coefficients 


     PseudoPot. # 4 for C  read from file:
     ./pseudo/C.pbe-n-kjpaw_psl.1.0.0.UPF
     MD5 check sum: 5f16ad9a65e90284d1d834d4ab3b0f7d
     Pseudo is Projector augmented-wave + core cor, Zval =  4.0
     Generated using "atomic" code by A. Dal Corso v.6.3
     Shape of augmentation charge: PSQ
     Using radial grid of 1073 points,  4 beta functions with: 
                l(1) =   0
                l(2) =   0
                l(3) =   1
                l(4) =   1
     Q(r) pseudized with 0 coefficients 


     PseudoPot. # 5 for C  read from file:
     ./pseudo/C.pbe-n-kjpaw_psl.1.0.0.UPF
     MD5 check sum: 5f16ad9a65e90284d1d834d4ab3b0f7d
     Pseudo is Projector augmented-wave + core cor, Zval =  4.0
     Generated using "atomic" code by A. Dal Corso v.6.3
     Shape of augmentation charge: PSQ
     Using radial grid of 1073 points,  4 beta functions with: 
                l(1) =   0
                l(2) =   0
                l(3) =   1
                l(4) =   1
     Q(r) pseudized with 0 coefficients 


     atomic species   valence    mass     pseudopotential
        B              3.00    10.00000     B ( 1.00)
        N              5.00    14.00000     N ( 1.00)
        C1             4.00    12.00000     C ( 1.00)
        C2             4.00    12.00000     C ( 1.00)
        C3             4.00    12.00000     C ( 1.00)

     Starting magnetic structure 
     atomic species   magnetization
        B            0.000
        N            0.000
        C1           1.000
        C2           0.000
        C3           0.000

      2 Sym. Ops. (no inversion) found



   Cartesian axes

     site n.     atom                  positions (alat units)
         1           B   tau(   1) = (  -0.0000371   0.0821584   0.5686018  )
         2           B   tau(   2) = (  -0.0714008   0.2061976   0.5686018  )
         3           B   tau(   3) = (  -0.1430924   0.3301139   0.5686018  )
         4           B   tau(   4) = (  -0.2149378   0.4537777   0.5686018  )
         5           B   tau(   5) = (  -0.2861663   0.5775476   0.5686018  )
         6           B   tau(   6) = (  -0.3574844   0.7014424   0.5686018  )
         7           B   tau(   7) = (  -0.4290811   0.8251023   0.5686018  )
         8           B   tau(   8) = (   0.1428711   0.0818489   0.5686018  )
         9           B   tau(   9) = (   0.0712153   0.2053556   0.5686018  )
        10           B   tau(  10) = (   0.0002191   0.3301230   0.5686018  )
        11           B   tau(  11) = (  -0.0725343   0.4539849   0.5686018  )
        12           B   tau(  12) = (  -0.1441281   0.5777679   0.5686018  )
        13           B   tau(  13) = (  -0.2149124   0.7014522   0.5686018  )
        14           B   tau(  14) = (  -0.2861899   0.8249279   0.5686018  )
        15           B   tau(  15) = (   0.2862103   0.0817964   0.5686018  )
        16           B   tau(  16) = (   0.2148456   0.2045551   0.5686018  )
        17           B   tau(  17) = (   0.1436191   0.3271874   0.5686018  )
        18           B   tau(  18) = (   0.0696286   0.4561878   0.5686018  )
        19           B   tau(  19) = (  -0.0025734   0.5788588   0.5686018  )
        20           B   tau(  20) = (  -0.0724060   0.7019934   0.5686018  )
        21           B   tau(  21) = (  -0.1432347   0.8251120   0.5686018  )
        22           B   tau(  22) = (   0.4289830   0.0823427   0.5686018  )
        23           B   tau(  23) = (   0.3574501   0.2061109   0.5686018  )
        24           B   tau(  24) = (   0.2853727   0.3296708   0.5686018  )
        25           C2  tau(  25) = (   0.2152614   0.4530921   0.5686018  )
        26           B   tau(  26) = (   0.1397639   0.5776653   0.5686018  )
        27           B   tau(  27) = (   0.0705902   0.7018829   0.5686018  )
        28           B   tau(  28) = (  -0.0004314   0.8253105   0.5686018  )
        29           B   tau(  29) = (   0.5717670   0.0822402   0.5686018  )
        30           B   tau(  30) = (   0.5003469   0.2060380   0.5686018  )
        31           B   tau(  31) = (   0.4287250   0.3298486   0.5686018  )
        32           B   tau(  32) = (   0.3572017   0.4540838   0.5686018  )
        33           B   tau(  33) = (   0.2884753   0.5780870   0.5686018  )
        34           B   tau(  34) = (   0.2142340   0.7008071   0.5686018  )
        35           B   tau(  35) = (   0.1425864   0.8249225   0.5686018  )
        36           B   tau(  36) = (   0.7147535   0.0821547   0.5686018  )
        37           B   tau(  37) = (   0.6432306   0.2060034   0.5686018  )
        38           B   tau(  38) = (   0.5717587   0.3297272   0.5686018  )
        39           B   tau(  39) = (   0.5002477   0.4534434   0.5686018  )
        40           B   tau(  40) = (   0.4302931   0.5777203   0.5686018  )
        41           B   tau(  41) = (   0.3577848   0.7017069   0.5686018  )
        42           B   tau(  42) = (   0.2857466   0.8247939   0.5686018  )
        43           B   tau(  43) = (   0.8578343   0.0821016   0.5686018  )
        44           B   tau(  44) = (   0.7862479   0.2059869   0.5686018  )
        45           B   tau(  45) = (   0.7146805   0.3297744   0.5686018  )
        46           B   tau(  46) = (   0.6432000   0.4533774   0.5686018  )
        47           B   tau(  47) = (   0.5722855   0.5772949   0.5686018  )
        48           B   tau(  48) = (   0.5005705   0.7014037   0.5686018  )
        49           B   tau(  49) = (   0.4288485   0.8250106   0.5686018  )
        50           N   tau(  50) = (   0.0714215   0.0409728   0.5686018  )
        51           N   tau(  51) = (  -0.0002005   0.1644836   0.5686018  )
        52           N   tau(  52) = (  -0.0713751   0.2888738   0.5686018  )
        53           N   tau(  53) = (  -0.1436423   0.4125293   0.5686018  )
        54           N   tau(  54) = (  -0.2151261   0.5362438   0.5686018  )
        55           N   tau(  55) = (  -0.2862168   0.6600831   0.5686018  )
        56           N   tau(  56) = (  -0.3576391   0.7838558   0.5686018  )
        57           N   tau(  57) = (   0.2145108   0.0408955   0.5686018  )
        58           N   tau(  58) = (   0.1429447   0.1642042   0.5686018  )
        59           N   tau(  59) = (   0.0713591   0.2875915   0.5686018  )
        60           N   tau(  60) = (  -0.0007973   0.4130602   0.5686018  )
        61           N   tau(  61) = (  -0.0731659   0.5365810   0.5686018  )
        62           N   tau(  62) = (  -0.1436828   0.6603278   0.5686018  )
        63           N   tau(  63) = (  -0.2147377   0.7838887   0.5686018  )
        64           N   tau(  64) = (   0.3576160   0.0410007   0.5686018  )
        65           N   tau(  65) = (   0.2863719   0.1641316   0.5686018  )
        66           N   tau(  66) = (   0.2150190   0.2867815   0.5686018  )
        67           C1  tau(  67) = (   0.1457870   0.4134475   0.5686018  )
        68           N   tau(  68) = (   0.0679495   0.5381418   0.5686018  )
        69           N   tau(  69) = (  -0.0012561   0.6611314   0.5686018  )
        70           N   tau(  70) = (  -0.0719451   0.7842420   0.5686018  )
        71           N   tau(  71) = (   0.5003292   0.0412463   0.5686018  )
        72           N   tau(  72) = (   0.4288850   0.1649027   0.5686018  )
        73           N   tau(  73) = (   0.3571557   0.2888715   0.5686018  )
        74           N   tau(  74) = (   0.2850569   0.4127956   0.5686018  )
        75           C3  tau(  75) = (   0.2148577   0.5330806   0.5686018  )
        76           N   tau(  76) = (   0.1419011   0.6602186   0.5686018  )
        77           N   tau(  77) = (   0.0709372   0.7841910   0.5686018  )
        78           N   tau(  78) = (   0.6432699   0.0409911   0.5686018  )
        79           N   tau(  79) = (   0.5717851   0.1647648   0.5686018  )
        80           N   tau(  80) = (   0.5002131   0.2885739   0.5686018  )
        81           N   tau(  81) = (   0.4284268   0.4123167   0.5686018  )
        82           N   tau(  82) = (   0.3591683   0.5364557   0.5686018  )
        83           N   tau(  83) = (   0.2866358   0.6604635   0.5686018  )
        84           N   tau(  84) = (   0.2141593   0.7834335   0.5686018  )
        85           N   tau(  85) = (   0.7862783   0.0409078   0.5686018  )
        86           N   tau(  86) = (   0.7147424   0.1647164   0.5686018  )
        87           N   tau(  87) = (   0.6432220   0.2884959   0.5686018  )
        88           N   tau(  88) = (   0.5716530   0.4121817   0.5686018  )
        89           N   tau(  89) = (   0.5010631   0.5359879   0.5686018  )
        90           N   tau(  90) = (   0.4292864   0.6601627   0.5686018  )
        91           N   tau(  91) = (   0.3574725   0.7839908   0.5686018  )
        92           N   tau(  92) = (   0.9292364   0.0408785   0.5686018  )
        93           N   tau(  93) = (   0.8577324   0.1646692   0.5686018  )
        94           N   tau(  94) = (   0.7861561   0.2884755   0.5686018  )
        95           N   tau(  95) = (   0.7144646   0.4121377   0.5686018  )
        96           N   tau(  96) = (   0.6433203   0.5358541   0.5686018  )
        97           N   tau(  97) = (   0.5718588   0.6598397   0.5686018  )
        98           N   tau(  98) = (   0.5002474   0.7837203   0.5686018  )

     number of k points=     1
                       cart. coord. in units 2pi/alat
        k(    1) = (   0.0000000   0.0000000   0.0000000), wk =   1.0000000

     Dense  grid:   618259 G-vectors     FFT dimensions: ( 135, 135, 160)

     Occupations read from input 

      Spin-up

        1.0000   1.0000   1.0000   1.0000   1.0000   1.0000   1.0000   1.0000
        1.0000   1.0000   1.0000   1.0000   1.0000   1.0000   1.0000   1.0000
        1.0000   1.0000   1.0000   1.0000   1.0000   1.0000   1.0000   1.0000
        1.0000   1.0000   1.0000   1.0000   1.0000   1.0000   1.0000   1.0000
        1.0000   1.0000   1.0000   1.0000   1.0000   1.0000   1.0000   1.0000
        1.0000   1.0000   1.0000   1.0000   1.0000   1.0000   1.0000   1.0000
        1.0000   1.0000   1.0000   1.0000   1.0000   1.0000   1.0000   1.0000
        1.0000   1.0000   1.0000   1.0000   1.0000   1.0000   1.0000   1.0000
        1.0000   1.0000   1.0000   1.0000   1.0000   1.0000   1.0000   1.0000
        1.0000   1.0000   1.0000   1.0000   1.0000   1.0000   1.0000   1.0000
        1.0000   1.0000   1.0000   1.0000   1.0000   1.0000   1.0000   1.0000
        1.0000   1.0000   1.0000   1.0000   1.0000   1.0000   1.0000   1.0000
        1.0000   1.0000   1.0000   1.0000   1.0000   1.0000   1.0000   1.0000
        1.0000   1.0000   1.0000   1.0000   1.0000   1.0000   1.0000   1.0000
        1.0000   1.0000   1.0000   1.0000   1.0000   1.0000   1.0000   1.0000
        1.0000   1.0000   1.0000   1.0000   1.0000   1.0000   1.0000   1.0000
        1.0000   1.0000   1.0000   1.0000   1.0000   1.0000   1.0000   1.0000
        1.0000   1.0000   1.0000   1.0000   1.0000   1.0000   1.0000   1.0000
        1.0000   1.0000   1.0000   1.0000   1.0000   1.0000   1.0000   1.0000
        1.0000   1.0000   1.0000   1.0000   1.0000   1.0000   1.0000   1.0000
        1.0000   1.0000   1.0000   1.0000   1.0000   1.0000   1.0000   1.0000
        1.0000   1.0000   1.0000   1.0000   1.0000   1.0000   1.0000   1.0000
        1.0000   1.0000   1.0000   1.0000   1.0000   1.0000   1.0000   1.0000
        1.0000   1.0000   1.0000   1.0000   1.0000   1.0000   1.0000   1.0000
        1.0000   1.0000   1.0000   1.0000   0.0000   0.0000   0.0000   0.0000
        0.0000   0.0000   0.0000   0.0000   0.0000   0.0000   0.0000   0.0000
        0.0000   0.0000   0.0000   0.0000   0.0000   0.0000   0.0000   0.0000
        0.0000   0.0000   0.0000   0.0000   0.0000   0.0000   0.0000   0.0000
        0.0000   0.0000   0.0000   0.0000   0.0000   0.0000   0.0000   0.0000
        0.0000   0.0000   0.0000   0.0000   0.0000   0.0000   0.0000   0.0000
        0.0000   0.0000   0.0000   0.0000   0.0000

      Spin-down

        1.0000   1.0000   1.0000   1.0000   1.0000   1.0000   1.0000   1.0000
        1.0000   1.0000   1.0000   1.0000   1.0000   1.0000   1.0000   1.0000
        1.0000   1.0000   1.0000   1.0000   1.0000   1.0000   1.0000   1.0000
        1.0000   1.0000   1.0000   1.0000   1.0000   1.0000   1.0000   1.0000
        1.0000   1.0000   1.0000   1.0000   1.0000   1.0000   1.0000   1.0000
        1.0000   1.0000   1.0000   1.0000   1.0000   1.0000   1.0000   1.0000
        1.0000   1.0000   1.0000   1.0000   1.0000   1.0000   1.0000   1.0000
        1.0000   1.0000   1.0000   1.0000   1.0000   1.0000   1.0000   1.0000
        1.0000   1.0000   1.0000   1.0000   1.0000   1.0000   1.0000   1.0000
        1.0000   1.0000   1.0000   1.0000   1.0000   1.0000   1.0000   1.0000
        1.0000   1.0000   1.0000   1.0000   1.0000   1.0000   1.0000   1.0000
        1.0000   1.0000   1.0000   1.0000   1.0000   1.0000   1.0000   1.0000
        1.0000   1.0000   1.0000   1.0000   1.0000   1.0000   1.0000   1.0000
        1.0000   1.0000   1.0000   1.0000   1.0000   1.0000   1.0000   1.0000
        1.0000   1.0000   1.0000   1.0000   1.0000   1.0000   1.0000   1.0000
        1.0000   1.0000   1.0000   1.0000   1.0000   1.0000   1.0000   1.0000
        1.0000   1.0000   1.0000   1.0000   1.0000   1.0000   1.0000   1.0000
        1.0000   1.0000   1.0000   1.0000   1.0000   1.0000   1.0000   1.0000
        1.0000   1.0000   1.0000   1.0000   1.0000   1.0000   1.0000   1.0000
        1.0000   1.0000   1.0000   1.0000   1.0000   1.0000   1.0000   1.0000
        1.0000   1.0000   1.0000   1.0000   1.0000   1.0000   1.0000   1.0000
        1.0000   1.0000   1.0000   1.0000   1.0000   1.0000   1.0000   1.0000
        1.0000   1.0000   1.0000   1.0000   1.0000   1.0000   1.0000   1.0000
        1.0000   1.0000   1.0000   1.0000   1.0000   1.0000   1.0000   1.0000
        1.0000   1.0000   1.0000   0.0000   0.0000   0.0000   0.0000   0.0000
        0.0000   0.0000   0.0000   0.0000   0.0000   0.0000   0.0000   0.0000
        0.0000   0.0000   0.0000   0.0000   0.0000   0.0000   0.0000   0.0000
        0.0000   0.0000   0.0000   0.0000   0.0000   0.0000   0.0000   0.0000
        0.0000   0.0000   0.0000   0.0000   0.0000   0.0000   0.0000   0.0000
        0.0000   0.0000   0.0000   0.0000   0.0000   0.0000   0.0000   0.0000
        0.0000   0.0000   0.0000   0.0000   0.0000

     Estimated max dynamical RAM per process >     122.31 MB

     Estimated total dynamical RAM >       7.64 GB
     Generating pointlists ...
     new r_m :   0.0336 (alat units)  1.1164 (a.u.) for type    1
     new r_m :   0.0332 (alat units)  1.1049 (a.u.) for type    2
     new r_m :   0.0330 (alat units)  1.0966 (a.u.) for type    3
     new r_m :   0.0330 (alat units)  1.0966 (a.u.) for type    4
     new r_m :   0.0330 (alat units)  1.0966 (a.u.) for type    5

     Check: negative core charge=   -0.000006

     Initial potential from superposition of free atoms

     starting charge  390.98597, renormalised to  391.00000

     negative rho (up, down):  5.503E-02 5.968E-02
     Starting wfcs are  392 randomized atomic wfcs
     Checking if some PAW data can be deallocated... 

     total cpu time spent up to now is        8.0 secs

     Self-consistent Calculation

     iteration #  1     ecut=    40.00 Ry     beta= 0.70
     CG style diagonalization
     ethr =  1.00E-02,  avg # of iterations =  3.1

     negative rho (up, down):  3.273E-01 1.006E-02

     total cpu time spent up to now is       45.4 secs

     total energy              =   -1933.43734060 Ry
     Harris-Foulkes estimate   =   -1946.64551393 Ry
     estimated scf accuracy    <      19.99661472 Ry

     total magnetization       =     1.00 Bohr mag/cell
     absolute magnetization    =     1.51 Bohr mag/cell

     iteration #  2     ecut=    40.00 Ry     beta= 0.70
     CG style diagonalization
     ethr =  5.11E-03,  avg # of iterations =  4.0

     negative rho (up, down):  3.630E-01 7.147E-03

     total cpu time spent up to now is       81.2 secs

     total energy              =   -1937.82775060 Ry
     Harris-Foulkes estimate   =   -1943.95352394 Ry
     estimated scf accuracy    <      11.99962724 Ry

     total magnetization       =     1.00 Bohr mag/cell
     absolute magnetization    =     1.37 Bohr mag/cell

     iteration #  3     ecut=    40.00 Ry     beta= 0.70
     CG style diagonalization
     ethr =  3.07E-03,  avg # of iterations =  3.8

     negative rho (up, down):  4.318E-01 6.428E-03

     total cpu time spent up to now is      114.6 secs

     total energy              =   -1940.31670557 Ry
     Harris-Foulkes estimate   =   -1940.50865689 Ry
     estimated scf accuracy    <       0.35023232 Ry

     total magnetization       =     1.00 Bohr mag/cell
     absolute magnetization    =     1.22 Bohr mag/cell

     iteration #  4     ecut=    40.00 Ry     beta= 0.70
     CG style diagonalization
     ethr =  8.96E-05,  avg # of iterations =  8.1

     negative rho (up, down):  4.605E-01 5.640E-03

     total cpu time spent up to now is      186.5 secs

     total energy              =   -1940.40004306 Ry
     Harris-Foulkes estimate   =   -1940.59490879 Ry
     estimated scf accuracy    <       0.50135929 Ry

     total magnetization       =     1.00 Bohr mag/cell
     absolute magnetization    =     1.17 Bohr mag/cell

     iteration #  5     ecut=    40.00 Ry     beta= 0.70
     CG style diagonalization
     ethr =  8.96E-05,  avg # of iterations =  3.4

     negative rho (up, down):  4.741E-01 5.357E-03

     total cpu time spent up to now is      215.3 secs

     total energy              =   -1940.47807032 Ry
     Harris-Foulkes estimate   =   -1940.48482292 Ry
     estimated scf accuracy    <       0.01835837 Ry

     total magnetization       =     1.00 Bohr mag/cell
     absolute magnetization    =     1.19 Bohr mag/cell

     iteration #  6     ecut=    40.00 Ry     beta= 0.70
     CG style diagonalization
     c_bands:  3 eigenvalues not converged
     c_bands:  4 eigenvalues not converged
     ethr =  4.70E-06,  avg # of iterations =  4.6

     negative rho (up, down):  4.862E-01 5.504E-03

     total cpu time spent up to now is      258.2 secs

     total energy              =   -1940.48388765 Ry
     Harris-Foulkes estimate   =   -1940.48599091 Ry
     estimated scf accuracy    <       0.00826360 Ry

     total magnetization       =     1.00 Bohr mag/cell
     absolute magnetization    =     1.19 Bohr mag/cell

     iteration #  7     ecut=    40.00 Ry     beta= 0.70
     CG style diagonalization
     c_bands:  5 eigenvalues not converged
     c_bands:  5 eigenvalues not converged
     ethr =  2.11E-06,  avg # of iterations =  5.8

     negative rho (up, down):  4.874E-01 5.558E-03

     total cpu time spent up to now is      309.9 secs

     total energy              =   -1940.48588821 Ry
     Harris-Foulkes estimate   =   -1940.48613708 Ry
     estimated scf accuracy    <       0.00098632 Ry

     total magnetization       =     1.00 Bohr mag/cell
     absolute magnetization    =     1.21 Bohr mag/cell

     iteration #  8     ecut=    40.00 Ry     beta= 0.70
     CG style diagonalization
     c_bands:  3 eigenvalues not converged
     ethr =  2.52E-07,  avg # of iterations =  3.6

     negative rho (up, down):  4.869E-01 5.608E-03

     total cpu time spent up to now is      341.0 secs

     total energy              =   -1940.48599222 Ry
     Harris-Foulkes estimate   =   -1940.48607298 Ry
     estimated scf accuracy    <       0.00031161 Ry

     total magnetization       =     1.00 Bohr mag/cell
     absolute magnetization    =     1.20 Bohr mag/cell

     iteration #  9     ecut=    40.00 Ry     beta= 0.70
     CG style diagonalization
     c_bands:  1 eigenvalues not converged
     ethr =  7.97E-08,  avg # of iterations =  3.8

     negative rho (up, down):  4.867E-01 5.654E-03

     total cpu time spent up to now is      374.3 secs

     total energy              =   -1940.48611568 Ry
     Harris-Foulkes estimate   =   -1940.48609516 Ry
     estimated scf accuracy    <       0.00003797 Ry

     total magnetization       =     1.00 Bohr mag/cell
     absolute magnetization    =     1.20 Bohr mag/cell

     iteration # 10     ecut=    40.00 Ry     beta= 0.70
     CG style diagonalization
     ethr =  9.71E-09,  avg # of iterations =  3.7

     negative rho (up, down):  4.866E-01 5.675E-03

     total cpu time spent up to now is      406.5 secs

     total energy              =   -1940.48612590 Ry
     Harris-Foulkes estimate   =   -1940.48613093 Ry
     estimated scf accuracy    <       0.00003137 Ry

     total magnetization       =     1.00 Bohr mag/cell
     absolute magnetization    =     1.20 Bohr mag/cell

     iteration # 11     ecut=    40.00 Ry     beta= 0.70
     CG style diagonalization
     ethr =  8.02E-09,  avg # of iterations =  3.3

     negative rho (up, down):  4.868E-01 5.668E-03

     total cpu time spent up to now is      433.7 secs

     total energy              =   -1940.48612910 Ry
     Harris-Foulkes estimate   =   -1940.48613160 Ry
     estimated scf accuracy    <       0.00000571 Ry

     total magnetization       =     1.00 Bohr mag/cell
     absolute magnetization    =     1.20 Bohr mag/cell

     iteration # 12     ecut=    40.00 Ry     beta= 0.70
     CG style diagonalization
     ethr =  1.46E-09,  avg # of iterations =  3.9

     negative rho (up, down):  4.867E-01 5.676E-03

     total cpu time spent up to now is      467.9 secs

     total energy              =   -1940.48613111 Ry
     Harris-Foulkes estimate   =   -1940.48613107 Ry
     estimated scf accuracy    <       0.00000063 Ry

     total magnetization       =     1.00 Bohr mag/cell
     absolute magnetization    =     1.20 Bohr mag/cell

     iteration # 13     ecut=    40.00 Ry     beta= 0.70
     CG style diagonalization
     ethr =  1.60E-10,  avg # of iterations =  3.6

     negative rho (up, down):  4.867E-01 5.679E-03

     total cpu time spent up to now is      499.3 secs

     total energy              =   -1940.48613137 Ry
     Harris-Foulkes estimate   =   -1940.48613139 Ry
     estimated scf accuracy    <       0.00000010 Ry

     total magnetization       =     1.00 Bohr mag/cell
     absolute magnetization    =     1.21 Bohr mag/cell

     iteration # 14     ecut=    40.00 Ry     beta= 0.70
     CG style diagonalization
     ethr =  2.63E-11,  avg # of iterations =  3.7

     negative rho (up, down):  4.867E-01 5.677E-03

     total cpu time spent up to now is      531.7 secs

     total energy              =   -1940.48613138 Ry
     Harris-Foulkes estimate   =   -1940.48613139 Ry
     estimated scf accuracy    <       0.00000001 Ry

     total magnetization       =     1.00 Bohr mag/cell
     absolute magnetization    =     1.21 Bohr mag/cell

     iteration # 15     ecut=    40.00 Ry     beta= 0.70
     CG style diagonalization
     ethr =  3.09E-12,  avg # of iterations =  4.0

     negative rho (up, down):  4.867E-01 5.674E-03

     total cpu time spent up to now is      567.4 secs

     total energy              =   -1940.48613139 Ry
     Harris-Foulkes estimate   =   -1940.48613139 Ry
     estimated scf accuracy    <          5.8E-09 Ry

     total magnetization       =     1.00 Bohr mag/cell
     absolute magnetization    =     1.21 Bohr mag/cell

     iteration # 16     ecut=    40.00 Ry     beta= 0.70
     CG style diagonalization
     ethr =  1.48E-12,  avg # of iterations =  3.3

     negative rho (up, down):  4.867E-01 5.674E-03

     total cpu time spent up to now is      595.1 secs

     total energy              =   -1940.48613139 Ry
     Harris-Foulkes estimate   =   -1940.48613139 Ry
     estimated scf accuracy    <          1.5E-09 Ry

     total magnetization       =     1.00 Bohr mag/cell
     absolute magnetization    =     1.21 Bohr mag/cell

     iteration # 17     ecut=    40.00 Ry     beta= 0.70
     CG style diagonalization
     ethr =  3.94E-13,  avg # of iterations =  3.6

     negative rho (up, down):  4.867E-01 5.674E-03
 
     Magnetic moment per site:
     atom:    1    charge:    0.8506    magn:   -0.0000    constr:    0.0000
     atom:    2    charge:    0.8460    magn:    0.0003    constr:    0.0000
     atom:    3    charge:    0.8473    magn:    0.0007    constr:    0.0000
     atom:    4    charge:    0.8500    magn:   -0.0000    constr:    0.0000
     atom:    5    charge:    0.8524    magn:    0.0000    constr:    0.0000
     atom:    6    charge:    0.8504    magn:    0.0001    constr:    0.0000
     atom:    7    charge:    0.8511    magn:   -0.0000    constr:    0.0000
     atom:    8    charge:    0.8498    magn:    0.0001    constr:    0.0000
     atom:    9    charge:    0.8509    magn:   -0.0003    constr:    0.0000
     atom:   10    charge:    0.8406    magn:    0.0030    constr:    0.0000
     atom:   11    charge:    0.8473    magn:    0.0005    constr:    0.0000
     atom:   12    charge:    0.8538    magn:    0.0001    constr:    0.0000
     atom:   13    charge:    0.8529    magn:   -0.0000    constr:    0.0000
     atom:   14    charge:    0.8504    magn:    0.0001    constr:    0.0000
     atom:   15    charge:    0.8505    magn:   -0.0001    constr:    0.0000
     atom:   16    charge:    0.8541    magn:    0.0001    constr:    0.0000
     atom:   17    charge:    0.8609    magn:    0.0025    constr:    0.0000
     atom:   18    charge:    0.8514    magn:    0.0074    constr:    0.0000
     atom:   19    charge:    0.8612    magn:   -0.0003    constr:    0.0000
     atom:   20    charge:    0.8537    magn:    0.0001    constr:    0.0000
     atom:   21    charge:    0.8524    magn:    0.0000    constr:    0.0000
     atom:   22    charge:    0.8478    magn:    0.0000    constr:    0.0000
     atom:   23    charge:    0.8444    magn:    0.0003    constr:    0.0000
     atom:   24    charge:    0.8438    magn:   -0.0007    constr:    0.0000
     atom:   25    charge:    1.6284    magn:   -0.0264    constr:    0.0000
     atom:   26    charge:    0.8514    magn:    0.0074    constr:    0.0000
     atom:   27    charge:    0.8473    magn:    0.0005    constr:    0.0000
     atom:   28    charge:    0.8500    magn:   -0.0000    constr:    0.0000
     atom:   29    charge:    0.8472    magn:    0.0001    constr:    0.0000
     atom:   30    charge:    0.8485    magn:    0.0000    constr:    0.0000
     atom:   31    charge:    0.8486    magn:   -0.0003    constr:    0.0000
     atom:   32    charge:    0.8439    magn:   -0.0007    constr:    0.0000
     atom:   33    charge:    0.8609    magn:    0.0025    constr:    0.0000
     atom:   34    charge:    0.8406    magn:    0.0030    constr:    0.0000
     atom:   35    charge:    0.8473    magn:    0.0007    constr:    0.0000
     atom:   36    charge:    0.8467    magn:    0.0003    constr:    0.0000
     atom:   37    charge:    0.8465    magn:   -0.0000    constr:    0.0000
     atom:   38    charge:    0.8484    magn:    0.0000    constr:    0.0000
     atom:   39    charge:    0.8444    magn:    0.0003    constr:    0.0000
     atom:   40    charge:    0.8541    magn:    0.0001    constr:    0.0000
     atom:   41    charge:    0.8509    magn:   -0.0003    constr:    0.0000
     atom:   42    charge:    0.8459    magn:    0.0003    constr:    0.0000
     atom:   43    charge:    0.8460    magn:   -0.0000    constr:    0.0000
     atom:   44    charge:    0.8467    magn:    0.0003    constr:    0.0000
     atom:   45    charge:    0.8472    magn:    0.0001    constr:    0.0000
     atom:   46    charge:    0.8478    magn:    0.0000    constr:    0.0000
     atom:   47    charge:    0.8505    magn:   -0.0001    constr:    0.0000
     atom:   48    charge:    0.8498    magn:    0.0001    constr:    0.0000
     atom:   49    charge:    0.8506    magn:   -0.0000    constr:    0.0000
     atom:   50    charge:    2.7564    magn:    0.0005    constr:    0.0000
     atom:   51    charge:    2.7530    magn:   -0.0001    constr:    0.0000
     atom:   52    charge:    2.7471    magn:    0.0029    constr:    0.0000
     atom:   53    charge:    2.7552    magn:    0.0000    constr:    0.0000
     atom:   54    charge:    2.7555    magn:    0.0001    constr:    0.0000
     atom:   55    charge:    2.7526    magn:    0.0000    constr:    0.0000
     atom:   56    charge:    2.7515    magn:   -0.0000    constr:    0.0000
     atom:   57    charge:    2.7521    magn:    0.0003    constr:    0.0000
     atom:   58    charge:    2.7541    magn:    0.0039    constr:    0.0000
     atom:   59    charge:    2.7485    magn:    0.0065    constr:    0.0000
     atom:   60    charge:    2.7449    magn:    0.0123    constr:    0.0000
     atom:   61    charge:    2.7577    magn:    0.0012    constr:    0.0000
     atom:   62    charge:    2.7518    magn:   -0.0001    constr:    0.0000
     atom:   63    charge:    2.7526    magn:    0.0000    constr:    0.0000
     atom:   64    charge:    2.7577    magn:    0.0000    constr:    0.0000
     atom:   65    charge:    2.7573    magn:    0.0003    constr:    0.0000
     atom:   66    charge:    2.7567    magn:    0.0159    constr:    0.0000
     atom:   67    charge:    1.6560    magn:    0.1193    constr:    0.0000
     atom:   68    charge:    2.7632    magn:   -0.0023    constr:    0.0000
     atom:   69    charge:    2.7577    magn:    0.0012    constr:    0.0000
     atom:   70    charge:    2.7555    magn:    0.0001    constr:    0.0000
     atom:   71    charge:    2.7558    magn:    0.0000    constr:    0.0000
     atom:   72    charge:    2.7513    magn:    0.0002    constr:    0.0000
     atom:   73    charge:    2.7491    magn:    0.0013    constr:    0.0000
     atom:   74    charge:    2.7341    magn:   -0.0027    constr:    0.0000
     atom:   75    charge:    1.6560    magn:    0.1193    constr:    0.0000
     atom:   76    charge:    2.7449    magn:    0.0123    constr:    0.0000
     atom:   77    charge:    2.7552    magn:    0.0000    constr:    0.0000
     atom:   78    charge:    2.7539    magn:    0.0001    constr:    0.0000
     atom:   79    charge:    2.7517    magn:   -0.0000    constr:    0.0000
     atom:   80    charge:    2.7499    magn:   -0.0001    constr:    0.0000
     atom:   81    charge:    2.7491    magn:    0.0013    constr:    0.0000
     atom:   82    charge:    2.7567    magn:    0.0159    constr:    0.0000
     atom:   83    charge:    2.7485    magn:    0.0065    constr:    0.0000
     atom:   84    charge:    2.7471    magn:    0.0029    constr:    0.0000
     atom:   85    charge:    2.7513    magn:    0.0004    constr:    0.0000
     atom:   86    charge:    2.7523    magn:   -0.0001    constr:    0.0000
     atom:   87    charge:    2.7517    magn:   -0.0000    constr:    0.0000
     atom:   88    charge:    2.7513    magn:    0.0002    constr:    0.0000
     atom:   89    charge:    2.7573    magn:    0.0003    constr:    0.0000
     atom:   90    charge:    2.7541    magn:    0.0039    constr:    0.0000
     atom:   91    charge:    2.7530    magn:   -0.0001    constr:    0.0000
     atom:   92    charge:    2.7572    magn:   -0.0000    constr:    0.0000
     atom:   93    charge:    2.7513    magn:    0.0004    constr:    0.0000
     atom:   94    charge:    2.7539    magn:    0.0001    constr:    0.0000
     atom:   95    charge:    2.7558    magn:    0.0000    constr:    0.0000
     atom:   96    charge:    2.7577    magn:    0.0000    constr:    0.0000
     atom:   97    charge:    2.7521    magn:    0.0003    constr:    0.0000
     atom:   98    charge:    2.7564    magn:    0.0005    constr:    0.0000

     total cpu time spent up to now is      626.5 secs

     End of self-consistent calculation

 ------ SPIN UP ------------


          k = 0.0000 0.0000 0.0000 ( 77329 PWs)   bands (ev):

   -21.7562 -21.5438 -21.3706 -21.3620 -21.3443 -21.2909 -21.2377 -20.8221
   -20.6292 -20.6123 -20.6108 -20.5280 -20.5155 -20.3925 -20.2726 -20.2649
   -20.2428 -20.1088 -20.0960 -19.5555 -19.3731 -19.3708 -19.3675 -19.3563
   -19.3545 -19.3459 -19.3457 -19.3135 -19.2961 -19.1429 -19.1358 -19.0019
   -18.9498 -18.9493 -18.9204 -18.7544 -18.7476 -18.5219 -18.5120 -18.5006
   -18.4884 -18.4278 -18.4106 -18.3581 -18.3344 -18.3312 -18.3168 -17.0413
   -15.0728 -13.0942 -12.7439 -12.7384 -12.7264 -12.6936 -12.6872 -12.6214
   -12.5446 -12.5122 -12.5073 -12.4567 -12.3943 -12.1317 -12.0461 -12.0331
   -12.0102 -11.9585 -11.9382 -11.5183 -11.4001 -11.3817 -11.3669 -11.3604
   -11.3486 -11.3391 -11.3367 -11.2944 -11.2817 -11.0996 -11.0275 -10.8507
   -10.6986 -10.6866 -10.6526 -10.6439 -10.4913 -10.0460 -10.0128  -9.9788
    -9.9089  -9.8608  -9.7945  -9.3740  -9.3052  -9.3025  -9.2812  -9.2585
    -9.2518  -9.1975  -9.0272  -8.9051  -8.8912  -8.8730  -8.8725  -8.8614
    -8.8594  -8.8556  -8.8438  -8.8281  -8.8058  -8.8050  -8.7983  -8.7976
    -8.7841  -8.7816  -8.7811  -8.7424  -8.7289  -8.6904  -8.6515  -8.6407
    -8.4576  -8.4458  -8.1704  -8.1632  -8.1625  -8.1137  -8.0670  -7.8959
    -7.8405  -7.8014  -7.7866  -7.7847  -7.7116  -7.7109  -7.5287  -7.4740
    -7.4721  -7.4406  -7.4246  -7.4134  -7.4122  -7.3822  -7.3707  -7.3255
    -7.3193  -7.3137  -7.2928  -7.2580  -7.2289  -7.2015  -7.1978  -7.0215
    -7.0039  -6.9723  -6.9362  -6.7923  -6.6338  -6.5135  -6.2134  -6.1661
    -6.1469  -6.1352  -6.0886  -6.0413  -6.0374  -6.0359  -6.0297  -6.0221
    -6.0161  -6.0152  -5.9915  -5.9743  -5.8752  -5.7930  -5.7929  -5.6761
    -5.4954  -5.4268  -5.4223  -5.4053  -5.3410  -5.2375  -5.0984  -5.0969
    -4.7737  -4.7483  -4.7331  -4.7268  -4.6675  -4.6317  -4.5222  -4.4865
    -4.4848  -4.4774  -4.3452  -3.5479   0.0807   0.1873   0.7096   0.7309
     0.7344   0.7405   0.7603   0.7651   0.7974   0.8179   0.8186   0.8218
     0.8255   0.8406   0.8488   0.8829   0.9036   0.9055   0.9327   0.9434
     0.9778   1.1628   1.2479   1.2491   1.2689   1.2771   1.3126   1.3288
     1.3310   1.3339   1.3440   1.3514   1.3902   1.4407   1.4425   1.4433
     1.4504   1.4530   1.4751   1.8864   2.1087   2.1137   2.1138   2.1256
     2.1344   2.1389   2.3296   2.3386   2.3443

 ------ SPIN DOWN ----------


          k = 0.0000 0.0000 0.0000 ( 77329 PWs)   bands (ev):

   -21.7510 -21.5403 -21.3685 -21.3605 -21.3435 -21.2831 -21.2301 -20.8194
   -20.6253 -20.6080 -20.6059 -20.5234 -20.5116 -20.3914 -20.2661 -20.2589
   -20.2395 -20.0967 -20.0862 -19.5486 -19.3696 -19.3691 -19.3654 -19.3544
   -19.3516 -19.3425 -19.3365 -19.3028 -19.2920 -19.1368 -19.1313 -18.9978
   -18.9458 -18.9445 -18.9161 -18.7444 -18.7385 -18.5154 -18.5085 -18.4953
   -18.4853 -18.4237 -18.4030 -18.3562 -18.3309 -18.3275 -18.3123 -16.8917
   -14.7831 -13.0526 -12.7421 -12.7344 -12.7240 -12.6906 -12.6854 -12.6175
   -12.5426 -12.5082 -12.5036 -12.4410 -12.3858 -12.1263 -12.0442 -12.0304
   -12.0054 -11.9468 -11.9300 -11.5084 -11.3941 -11.3776 -11.3652 -11.3590
   -11.3469 -11.3354 -11.3352 -11.2852 -11.2708 -11.0664 -11.0036 -10.8465
   -10.6967 -10.6848 -10.6427 -10.6387 -10.4783 -10.0418 -10.0084  -9.9734
    -9.8986  -9.8462  -9.7787  -9.3712  -9.2972  -9.2871  -9.2769  -9.2541
    -9.2497  -9.1934  -9.0244  -8.9009  -8.8872  -8.8709  -8.8704  -8.8574
    -8.8516  -8.8411  -8.8406  -8.8264  -8.8033  -8.8012  -8.7953  -8.7936
    -8.7808  -8.7794  -8.7779  -8.7202  -8.7145  -8.6395  -8.6293  -8.6236
    -8.4459  -8.4144  -8.1691  -8.1613  -8.1608  -8.0948  -8.0588  -7.8814
    -7.8257  -7.7921  -7.7773  -7.7740  -7.6898  -7.6770  -7.5223  -7.4725
    -7.4690  -7.4384  -7.4233  -7.4112  -7.4076  -7.3809  -7.3688  -7.3230
    -7.3050  -7.3003  -7.2831  -7.2506  -7.1850  -7.1672  -7.1540  -7.0052
    -7.0021  -6.9713  -6.9186  -6.7650  -6.6126  -6.4863  -6.2016  -6.1630
    -6.1450  -6.1324  -6.0728  -6.0351  -6.0323  -6.0289  -6.0184  -6.0181
    -6.0075  -5.9995  -5.9655  -5.9606  -5.8107  -5.7735  -5.7557  -5.6490
    -5.4837  -5.4176  -5.4104  -5.3967  -5.2689  -5.1838  -5.0369  -5.0203
    -4.7596  -4.7390  -4.7206  -4.7171  -4.6306  -4.6185  -4.5170  -4.4778
    -4.4754  -4.4693  -4.1691  -2.8669   0.1678   0.1893   0.7102   0.7361
     0.7404   0.7517   0.7767   0.7821   0.7961   0.8183   0.8217   0.8225
     0.8253   0.8405   0.8515   0.8885   0.9145   0.9201   0.9372   0.9606
     1.0270   1.1778   1.2584   1.2772   1.2802   1.3156   1.3282   1.3296
     1.3333   1.3404   1.3431   1.3693   1.3992   1.4398   1.4416   1.4424
     1.4493   1.4524   1.4782   1.8873   2.1084   2.1132   2.1138   2.1258
     2.1413   2.1525   2.1527   2.2123   2.3435

     highest occupied, lowest unoccupied level (ev):    -3.5479   -2.8669

!    total energy              =   -1940.48613139 Ry
     Harris-Foulkes estimate   =   -1940.48613139 Ry
     estimated scf accuracy    <          9.7E-11 Ry

     total all-electron energy =     -7770.310608 Ry

     The total energy is the sum of the following terms:

     one-electron contribution =  -10659.32392157 Ry
     hartree contribution      =    5415.54040889 Ry
     xc contribution           =    -430.86044844 Ry
     ewald contribution        =    4377.60806257 Ry
     DFT-D3 Dispersion         =      -0.27039965 Ry
     one-center paw contrib.   =    -643.17983319 Ry

     total magnetization       =     1.00 Bohr mag/cell
     absolute magnetization    =     1.21 Bohr mag/cell

     convergence has been achieved in  17 iterations

     negative rho (up, down):  4.867E-01 5.674E-03

     Forces acting on atoms (cartesian axes, Ry/au):

     atom    1 type  1   force =     0.00004245    0.00002253    0.00000000
     atom    2 type  1   force =    -0.00002626    0.00003559    0.00000000
     atom    3 type  1   force =     0.00003849   -0.00006497    0.00000000
     atom    4 type  1   force =     0.00001934   -0.00004057    0.00000000
     atom    5 type  1   force =     0.00001747    0.00012938    0.00000000
     atom    6 type  1   force =     0.00005044    0.00006051    0.00000000
     atom    7 type  1   force =     0.00006962   -0.00000820    0.00000000
     atom    8 type  1   force =     0.00000896   -0.00003581    0.00000000
     atom    9 type  1   force =    -0.00003670    0.00001595    0.00000000
     atom   10 type  1   force =     0.00006276    0.00006556    0.00000000
     atom   11 type  1   force =     0.00004760   -0.00002843    0.00000000
     atom   12 type  1   force =    -0.00017100    0.00002055    0.00000000
     atom   13 type  1   force =    -0.00002538    0.00002189    0.00000000
     atom   14 type  1   force =    -0.00002275   -0.00004541    0.00000000
     atom   15 type  1   force =     0.00002606    0.00000209    0.00000000
     atom   16 type  1   force =    -0.00003748   -0.00000730    0.00000000
     atom   17 type  1   force =    -0.00002407    0.00014885    0.00000000
     atom   18 type  1   force =     0.00009108    0.00006202    0.00000000
     atom   19 type  1   force =    -0.00008961    0.00002427    0.00000000
     atom   20 type  1   force =    -0.00011771    0.00014018    0.00000000
     atom   21 type  1   force =    -0.00011170   -0.00004667    0.00000000
     atom   22 type  1   force =    -0.00002098    0.00001907    0.00000000
     atom   23 type  1   force =     0.00002786    0.00004146    0.00000000
     atom   24 type  1   force =    -0.00006314    0.00007355    0.00000000
     atom   25 type  4   force =    -0.00003525    0.00001022    0.00000000
     atom   26 type  1   force =    -0.00001298   -0.00013803    0.00000000
     atom   27 type  1   force =     0.00004871   -0.00006119    0.00000000
     atom   28 type  1   force =    -0.00001093    0.00005571    0.00000000
     atom   29 type  1   force =     0.00002444    0.00000716    0.00000000
     atom   30 type  1   force =     0.00007421    0.00000151    0.00000000
     atom   31 type  1   force =    -0.00001651   -0.00001527    0.00000000
     atom   32 type  1   force =    -0.00006814    0.00000706    0.00000000
     atom   33 type  1   force =    -0.00010526   -0.00004878    0.00000000
     atom   34 type  1   force =    -0.00002911   -0.00009678    0.00000000
     atom   35 type  1   force =     0.00006210    0.00004265    0.00000000
     atom   36 type  1   force =     0.00006779    0.00001759    0.00000000
     atom   37 type  1   force =     0.00007536   -0.00004686    0.00000000
     atom   38 type  1   force =     0.00003384   -0.00010318    0.00000000
     atom   39 type  1   force =    -0.00003624   -0.00009211    0.00000000
     atom   40 type  1   force =    -0.00006825   -0.00001083    0.00000000
     atom   41 type  1   force =    -0.00009975   -0.00000349    0.00000000
     atom   42 type  1   force =    -0.00005389    0.00005700    0.00000000
     atom   43 type  1   force =     0.00010222   -0.00002520    0.00000000
     atom   44 type  1   force =     0.00004705   -0.00005232    0.00000000
     atom   45 type  1   force =     0.00004065   -0.00004765    0.00000000
     atom   46 type  1   force =     0.00000300    0.00000012    0.00000000
     atom   47 type  1   force =     0.00006951   -0.00000485    0.00000000
     atom   48 type  1   force =     0.00008679    0.00004809    0.00000000
     atom   49 type  1   force =     0.00005977    0.00002813    0.00000000
     atom   50 type  2   force =     0.00010388    0.00003506    0.00000000
     atom   51 type  2   force =     0.00002319    0.00011072    0.00000000
     atom   52 type  2   force =     0.00011881    0.00005802    0.00000000
     atom   53 type  2   force =     0.00010841   -0.00008163    0.00000000
     atom   54 type  2   force =    -0.00012449   -0.00005749    0.00000000
     atom   55 type  2   force =    -0.00011096    0.00000125    0.00000000
     atom   56 type  2   force =    -0.00002966    0.00000388    0.00000000
     atom   57 type  2   force =     0.00006830    0.00011284    0.00000000
     atom   58 type  2   force =     0.00001189    0.00001076    0.00000000
     atom   59 type  2   force =    -0.00000364    0.00008615    0.00000000
     atom   60 type  2   force =     0.00016716    0.00004061    0.00000000
     atom   61 type  2   force =     0.00003299   -0.00003356    0.00000000
     atom   62 type  2   force =     0.00005167   -0.00002253    0.00000000
     atom   63 type  2   force =    -0.00006083    0.00007617    0.00000000
     atom   64 type  2   force =    -0.00003170    0.00012360    0.00000000
     atom   65 type  2   force =     0.00005652   -0.00000534    0.00000000
     atom   66 type  2   force =    -0.00006044   -0.00000084    0.00000000
     atom   67 type  3   force =    -0.00004277    0.00005531    0.00000000
     atom   68 type  2   force =    -0.00004338    0.00004496    0.00000000
     atom   69 type  2   force =     0.00005204    0.00002027    0.00000000
     atom   70 type  2   force =     0.00002888    0.00011197    0.00000000
     atom   71 type  2   force =    -0.00000829    0.00013664    0.00000000
     atom   72 type  2   force =     0.00010537    0.00008674    0.00000000
     atom   73 type  2   force =     0.00006108    0.00000099    0.00000000
     atom   74 type  2   force =    -0.00007625    0.00001737    0.00000000
     atom   75 type  5   force =    -0.00011050   -0.00000508    0.00000000
     atom   76 type  2   force =     0.00001112   -0.00014034    0.00000000
     atom   77 type  2   force =     0.00015229   -0.00003437    0.00000000
     atom   78 type  2   force =     0.00005203   -0.00003127    0.00000000
     atom   79 type  2   force =    -0.00002015    0.00009585    0.00000000
     atom   80 type  2   force =     0.00008596   -0.00001833    0.00000000
     atom   81 type  2   force =     0.00005498   -0.00001312    0.00000000
     atom   82 type  2   force =    -0.00000104    0.00009508    0.00000000
     atom   83 type  2   force =     0.00000006   -0.00000388    0.00000000
     atom   84 type  2   force =     0.00003150   -0.00010395    0.00000000
     atom   85 type  2   force =     0.00001411   -0.00011094    0.00000000
     atom   86 type  2   force =    -0.00002813   -0.00000305    0.00000000
     atom   87 type  2   force =    -0.00011268   -0.00001353    0.00000000
     atom   88 type  2   force =    -0.00005945   -0.00010086    0.00000000
     atom   89 type  2   force =     0.00003201   -0.00004482    0.00000000
     atom   90 type  2   force =     0.00000370   -0.00000039    0.00000000
     atom   91 type  2   force =    -0.00011147   -0.00010073    0.00000000
     atom   92 type  2   force =     0.00005908   -0.00009278    0.00000000
     atom   93 type  2   force =     0.00004147   -0.00001591    0.00000000
     atom   94 type  2   force =    -0.00001542   -0.00004160    0.00000000
     atom   95 type  2   force =    -0.00018276   -0.00004779    0.00000000
     atom   96 type  2   force =    -0.00016762   -0.00003685    0.00000000
     atom   97 type  2   force =    -0.00010978   -0.00014062    0.00000000
     atom   98 type  2   force =    -0.00003155   -0.00015737    0.00000000

     Total force =     0.000961     Total SCF correction =     0.000010


     Computing stress (Cartesian axis) and pressure


     negative rho (up, down):  4.867E-01 5.674E-03
          total   stress  (Ry/bohr**3)                   (kbar)     P=   -0.18
  -0.00000012   0.00000003   0.00000000         -0.02      0.00      0.00
   0.00000003  -0.00000009   0.00000000          0.00     -0.01      0.00
   0.00000000   0.00000000  -0.00000336          0.00      0.00     -0.49


     BFGS Geometry Optimization

     number of scf cycles    =   1
     number of bfgs steps    =   0

     enthalpy new            =   -1940.4861313908 Ry

     new trust radius        =       0.0001889069 bohr
     new conv_thr            =            1.0E-10 Ry

     new unit-cell volume =  36184.84612 a.u.^3 (  5362.04091 Ang^3 )
     density =      0.36357 g/cm^3

CELL_PARAMETERS (alat= 33.23461096)
   1.000648531  -0.000352986   0.000000000
  -0.500629960   0.866410425   0.000000000
   0.000000000   0.000000000   1.137203616

ATOMIC_POSITIONS (crystal)
B        0.047416323   0.094846134   0.500000000
B        0.047723166   0.238010757   0.500000000
B        0.047633327   0.381029518   0.500000000
B        0.047243566   0.523760982   0.500000000
B        0.047534874   0.666620352   0.500000000
B        0.047805521   0.809615506   0.500000000
B        0.047661661   0.952339392   0.500000000
B        0.190079848   0.094545130   0.500000000
B        0.189788598   0.237096259   0.500000000
B        0.190889033   0.381103017   0.500000000
B        0.189704191   0.524058784   0.500000000
B        0.189629279   0.666928800   0.500000000
B        0.190316561   0.809683716   0.500000000
B        0.190384948   0.952195118   0.500000000
B        0.333325879   0.094544379   0.500000000
B        0.332891945   0.236230004   0.500000000
B        0.332528329   0.377775557   0.500000000
B        0.333078752   0.526663023   0.500000000
B        0.331753337   0.668246150   0.500000000
B        0.333071089   0.810370746   0.500000000
B        0.333379786   0.952465875   0.500000000
B        0.476349134   0.095233869   0.500000000
B        0.476334087   0.238085936   0.500000000
B        0.475650443   0.380697656   0.500000000
C2       0.476853816   0.523146933   0.500000000
B        0.473337098   0.666920757   0.500000000
B        0.475941110   0.810294568   0.500000000
B        0.476238758   0.952756919   0.500000000
B        0.619011281   0.095173391   0.500000000
B        0.619125603   0.238058788   0.500000000
B        0.619041194   0.380958397   0.500000000
B        0.619302445   0.524349565   0.500000000
B        0.622224409   0.667471399   0.500000000
B        0.618896418   0.809109993   0.500000000
B        0.618970520   0.952366944   0.500000000
B        0.761886030   0.095133459   0.500000000
B        0.761924664   0.238075392   0.500000000
B        0.761940857   0.380873532   0.500000000
B        0.761913834   0.523665219   0.500000000
B        0.763768821   0.667107336   0.500000000
B        0.762902273   0.810210582   0.500000000
B        0.761989226   0.952277421   0.500000000
B        0.904872503   0.095129033   0.500000000
B        0.904867584   0.238114555   0.500000000
B        0.904827272   0.380988371   0.500000000
B        0.904766929   0.523650656   0.500000000
B        0.905456309   0.666674361   0.500000000
B        0.905455534   0.809920595   0.500000000
B        0.905155206   0.952584944   0.500000000
N        0.095057707   0.047330191   0.500000000
N        0.094802002   0.189887016   0.500000000
N        0.095504350   0.333454641   0.500000000
N        0.094685671   0.476170748   0.500000000
N        0.094680264   0.618960896   0.500000000
N        0.095147724   0.761896480   0.500000000
N        0.095246533   0.904753137   0.500000000
N        0.238038741   0.047302074   0.500000000
N        0.237719675   0.189619345   0.500000000
N        0.237430978   0.332033621   0.500000000
N        0.237777345   0.476846155   0.500000000
N        0.236776875   0.619408911   0.500000000
N        0.237763904   0.762236342   0.500000000
N        0.238103362   0.904851995   0.500000000
N        0.381137871   0.047482354   0.500000000
N        0.381041964   0.189593519   0.500000000
N        0.380555658   0.331154152   0.500000000
C1       0.384513727   0.477353588   0.500000000
N        0.378729724   0.621271072   0.500000000
N        0.380591860   0.763223710   0.500000000
N        0.381039518   0.905319345   0.500000000
N        0.523930107   0.047824533   0.500000000
N        0.523939772   0.190545097   0.500000000
N        0.523839665   0.333624989   0.500000000
N        0.523343256   0.476656542   0.500000000
C3       0.522646272   0.615486541   0.500000000
N        0.523153865   0.762222784   0.500000000
N        0.523829658   0.905313768   0.500000000
N        0.666658460   0.047582483   0.500000000
N        0.666692809   0.190444504   0.500000000
N        0.666661645   0.333339074   0.500000000
N        0.666375921   0.476161227   0.500000000
N        0.668846694   0.619445200   0.500000000
N        0.667967314   0.762569349   0.500000000
N        0.666545444   0.904495325   0.500000000
N        0.809552237   0.047541845   0.500000000
N        0.809556274   0.190443644   0.500000000
N        0.809555628   0.333307550   0.500000000
N        0.809455147   0.476060759   0.500000000
N        0.810406489   0.618958266   0.500000000
N        0.810380557   0.762280368   0.500000000
N        0.810112245   0.905197237   0.500000000
N        0.952431289   0.047567096   0.500000000
N        0.952457034   0.190447086   0.500000000
N        0.952416508   0.333341375   0.500000000
N        0.952174673   0.476070068   0.500000000
N        0.952516902   0.618862111   0.500000000
N        0.952696855   0.761960818   0.500000000
N        0.952668448   0.904941305   0.500000000



     Writing output data file C2Cn.save/
     NEW-OLD atomic charge density approx. for the potential
     NEW k-points:
   0.0000000   0.0000000   0.0000000   1.0000000
   0.0000000   0.0000000   0.0000000   1.0000000

     Check: negative core charge=   -0.000006

     negative rho (up, down):  4.867E-01 2.820E-03
     extrapolated charge  390.99799, renormalised to  391.00000

     total cpu time spent up to now is      647.1 secs

     Self-consistent Calculation

     iteration #  1     ecut=    40.00 Ry     beta= 0.70
     CG style diagonalization
     ethr =  1.00E-06,  avg # of iterations =  2.0

     Threshold (ethr) on eigenvalues was too large:
     Diagonalizing with lowered threshold

     CG style diagonalization
     ethr =  3.33E-11,  avg # of iterations = 17.5

     negative rho (up, down):  4.867E-01 5.278E-03

     total cpu time spent up to now is      851.8 secs

     total energy              =   -1940.48613193 Ry
     Harris-Foulkes estimate   =   -1940.53922724 Ry
     estimated scf accuracy    <       0.00000044 Ry

     total magnetization       =     1.00 Bohr mag/cell
     absolute magnetization    =     1.21 Bohr mag/cell

     iteration #  2     ecut=    40.00 Ry     beta= 0.70
     CG style diagonalization
     ethr =  1.13E-10,  avg # of iterations =  4.0

     negative rho (up, down):  4.867E-01 5.433E-03

     total cpu time spent up to now is      887.9 secs

     total energy              =   -1940.48613200 Ry
     Harris-Foulkes estimate   =   -1940.48613230 Ry
     estimated scf accuracy    <       0.00000042 Ry

     total magnetization       =     1.00 Bohr mag/cell
     absolute magnetization    =     1.21 Bohr mag/cell

     iteration #  3     ecut=    40.00 Ry     beta= 0.70
     CG style diagonalization
     ethr =  1.08E-10,  avg # of iterations =  3.4

     negative rho (up, down):  4.867E-01 5.558E-03

     total cpu time spent up to now is      917.0 secs

     total energy              =   -1940.48613196 Ry
     Harris-Foulkes estimate   =   -1940.48613208 Ry
     estimated scf accuracy    <       0.00000001 Ry

     total magnetization       =     1.00 Bohr mag/cell
     absolute magnetization    =     1.21 Bohr mag/cell

     iteration #  4     ecut=    40.00 Ry     beta= 0.70
     CG style diagonalization
     ethr =  3.38E-12,  avg # of iterations =  3.9

     negative rho (up, down):  4.867E-01 5.660E-03

     total cpu time spent up to now is      952.0 secs

     total energy              =   -1940.48613189 Ry
     Harris-Foulkes estimate   =   -1940.48613196 Ry
     estimated scf accuracy    <          5.7E-09 Ry

     total magnetization       =     1.00 Bohr mag/cell
     absolute magnetization    =     1.21 Bohr mag/cell

     iteration #  5     ecut=    40.00 Ry     beta= 0.70
     CG style diagonalization
     ethr =  1.45E-12,  avg # of iterations =  3.5

     negative rho (up, down):  4.867E-01 5.698E-03

     total cpu time spent up to now is      981.8 secs

     total energy              =   -1940.48613187 Ry
     Harris-Foulkes estimate   =   -1940.48613189 Ry
     estimated scf accuracy    <          3.1E-10 Ry

     total magnetization       =     1.00 Bohr mag/cell
     absolute magnetization    =     1.21 Bohr mag/cell

     iteration #  6     ecut=    40.00 Ry     beta= 0.70
     CG style diagonalization
     ethr =  1.00E-13,  avg # of iterations =  4.0

     negative rho (up, down):  4.867E-01 5.705E-03

     total cpu time spent up to now is     1017.6 secs

     total energy              =   -1940.48613186 Ry
     Harris-Foulkes estimate   =   -1940.48613187 Ry
     estimated scf accuracy    <          2.0E-10 Ry

     total magnetization       =     1.00 Bohr mag/cell
     absolute magnetization    =     1.21 Bohr mag/cell

     iteration #  7     ecut=    40.00 Ry     beta= 0.70
     CG style diagonalization
     ethr =  1.00E-13,  avg # of iterations =  3.2

     negative rho (up, down):  4.867E-01 5.710E-03
 
     Magnetic moment per site:
     atom:    1    charge:    0.8506    magn:   -0.0000    constr:    0.0000
     atom:    2    charge:    0.8460    magn:    0.0003    constr:    0.0000
     atom:    3    charge:    0.8473    magn:    0.0007    constr:    0.0000
     atom:    4    charge:    0.8499    magn:   -0.0000    constr:    0.0000
     atom:    5    charge:    0.8524    magn:    0.0000    constr:    0.0000
     atom:    6    charge:    0.8504    magn:    0.0001    constr:    0.0000
     atom:    7    charge:    0.8511    magn:   -0.0000    constr:    0.0000
     atom:    8    charge:    0.8498    magn:    0.0001    constr:    0.0000
     atom:    9    charge:    0.8509    magn:   -0.0003    constr:    0.0000
     atom:   10    charge:    0.8406    magn:    0.0030    constr:    0.0000
     atom:   11    charge:    0.8473    magn:    0.0005    constr:    0.0000
     atom:   12    charge:    0.8537    magn:    0.0001    constr:    0.0000
     atom:   13    charge:    0.8528    magn:   -0.0000    constr:    0.0000
     atom:   14    charge:    0.8504    magn:    0.0001    constr:    0.0000
     atom:   15    charge:    0.8506    magn:   -0.0001    constr:    0.0000
     atom:   16    charge:    0.8541    magn:    0.0001    constr:    0.0000
     atom:   17    charge:    0.8609    magn:    0.0025    constr:    0.0000
     atom:   18    charge:    0.8514    magn:    0.0074    constr:    0.0000
     atom:   19    charge:    0.8612    magn:   -0.0003    constr:    0.0000
     atom:   20    charge:    0.8537    magn:    0.0001    constr:    0.0000
     atom:   21    charge:    0.8524    magn:    0.0000    constr:    0.0000
     atom:   22    charge:    0.8478    magn:    0.0000    constr:    0.0000
     atom:   23    charge:    0.8444    magn:    0.0003    constr:    0.0000
     atom:   24    charge:    0.8438    magn:   -0.0007    constr:    0.0000
     atom:   25    charge:    1.6284    magn:   -0.0264    constr:    0.0000
     atom:   26    charge:    0.8514    magn:    0.0074    constr:    0.0000
     atom:   27    charge:    0.8473    magn:    0.0005    constr:    0.0000
     atom:   28    charge:    0.8499    magn:   -0.0000    constr:    0.0000
     atom:   29    charge:    0.8472    magn:    0.0001    constr:    0.0000
     atom:   30    charge:    0.8485    magn:    0.0000    constr:    0.0000
     atom:   31    charge:    0.8486    magn:   -0.0003    constr:    0.0000
     atom:   32    charge:    0.8438    magn:   -0.0007    constr:    0.0000
     atom:   33    charge:    0.8609    magn:    0.0025    constr:    0.0000
     atom:   34    charge:    0.8406    magn:    0.0030    constr:    0.0000
     atom:   35    charge:    0.8474    magn:    0.0007    constr:    0.0000
     atom:   36    charge:    0.8467    magn:    0.0003    constr:    0.0000
     atom:   37    charge:    0.8465    magn:   -0.0000    constr:    0.0000
     atom:   38    charge:    0.8485    magn:    0.0000    constr:    0.0000
     atom:   39    charge:    0.8444    magn:    0.0003    constr:    0.0000
     atom:   40    charge:    0.8541    magn:    0.0001    constr:    0.0000
     atom:   41    charge:    0.8509    magn:   -0.0003    constr:    0.0000
     atom:   42    charge:    0.8460    magn:    0.0003    constr:    0.0000
     atom:   43    charge:    0.8460    magn:   -0.0000    constr:    0.0000
     atom:   44    charge:    0.8467    magn:    0.0003    constr:    0.0000
     atom:   45    charge:    0.8472    magn:    0.0001    constr:    0.0000
     atom:   46    charge:    0.8478    magn:    0.0000    constr:    0.0000
     atom:   47    charge:    0.8506    magn:   -0.0001    constr:    0.0000
     atom:   48    charge:    0.8498    magn:    0.0001    constr:    0.0000
     atom:   49    charge:    0.8506    magn:   -0.0000    constr:    0.0000
     atom:   50    charge:    2.7564    magn:    0.0005    constr:    0.0000
     atom:   51    charge:    2.7530    magn:   -0.0001    constr:    0.0000
     atom:   52    charge:    2.7471    magn:    0.0029    constr:    0.0000
     atom:   53    charge:    2.7551    magn:    0.0000    constr:    0.0000
     atom:   54    charge:    2.7555    magn:    0.0001    constr:    0.0000
     atom:   55    charge:    2.7526    magn:    0.0000    constr:    0.0000
     atom:   56    charge:    2.7515    magn:   -0.0000    constr:    0.0000
     atom:   57    charge:    2.7521    magn:    0.0003    constr:    0.0000
     atom:   58    charge:    2.7540    magn:    0.0039    constr:    0.0000
     atom:   59    charge:    2.7485    magn:    0.0065    constr:    0.0000
     atom:   60    charge:    2.7449    magn:    0.0123    constr:    0.0000
     atom:   61    charge:    2.7577    magn:    0.0012    constr:    0.0000
     atom:   62    charge:    2.7518    magn:   -0.0001    constr:    0.0000
     atom:   63    charge:    2.7526    magn:    0.0000    constr:    0.0000
     atom:   64    charge:    2.7577    magn:    0.0000    constr:    0.0000
     atom:   65    charge:    2.7572    magn:    0.0003    constr:    0.0000
     atom:   66    charge:    2.7567    magn:    0.0159    constr:    0.0000
     atom:   67    charge:    1.6561    magn:    0.1193    constr:    0.0000
     atom:   68    charge:    2.7632    magn:   -0.0023    constr:    0.0000
     atom:   69    charge:    2.7577    magn:    0.0012    constr:    0.0000
     atom:   70    charge:    2.7555    magn:    0.0001    constr:    0.0000
     atom:   71    charge:    2.7558    magn:    0.0000    constr:    0.0000
     atom:   72    charge:    2.7513    magn:    0.0002    constr:    0.0000
     atom:   73    charge:    2.7491    magn:    0.0013    constr:    0.0000
     atom:   74    charge:    2.7341    magn:   -0.0027    constr:    0.0000
     atom:   75    charge:    1.6561    magn:    0.1193    constr:    0.0000
     atom:   76    charge:    2.7449    magn:    0.0123    constr:    0.0000
     atom:   77    charge:    2.7551    magn:    0.0000    constr:    0.0000
     atom:   78    charge:    2.7539    magn:    0.0001    constr:    0.0000
     atom:   79    charge:    2.7517    magn:   -0.0000    constr:    0.0000
     atom:   80    charge:    2.7499    magn:   -0.0001    constr:    0.0000
     atom:   81    charge:    2.7491    magn:    0.0013    constr:    0.0000
     atom:   82    charge:    2.7567    magn:    0.0159    constr:    0.0000
     atom:   83    charge:    2.7485    magn:    0.0065    constr:    0.0000
     atom:   84    charge:    2.7471    magn:    0.0029    constr:    0.0000
     atom:   85    charge:    2.7513    magn:    0.0004    constr:    0.0000
     atom:   86    charge:    2.7523    magn:   -0.0001    constr:    0.0000
     atom:   87    charge:    2.7517    magn:   -0.0000    constr:    0.0000
     atom:   88    charge:    2.7512    magn:    0.0002    constr:    0.0000
     atom:   89    charge:    2.7572    magn:    0.0003    constr:    0.0000
     atom:   90    charge:    2.7540    magn:    0.0039    constr:    0.0000
     atom:   91    charge:    2.7530    magn:   -0.0001    constr:    0.0000
     atom:   92    charge:    2.7572    magn:   -0.0000    constr:    0.0000
     atom:   93    charge:    2.7513    magn:    0.0004    constr:    0.0000
     atom:   94    charge:    2.7539    magn:    0.0001    constr:    0.0000
     atom:   95    charge:    2.7558    magn:    0.0000    constr:    0.0000
     atom:   96    charge:    2.7577    magn:    0.0000    constr:    0.0000
     atom:   97    charge:    2.7521    magn:    0.0003    constr:    0.0000
     atom:   98    charge:    2.7564    magn:    0.0005    constr:    0.0000

     total cpu time spent up to now is     1043.7 secs

     End of self-consistent calculation

 ------ SPIN UP ------------


          k = 0.0000 0.0000 0.0000 ( 77329 PWs)   bands (ev):

   -21.7562 -21.5439 -21.3705 -21.3620 -21.3447 -21.2908 -21.2376 -20.8223
   -20.6291 -20.6121 -20.6107 -20.5280 -20.5158 -20.3927 -20.2726 -20.2649
   -20.2428 -20.1089 -20.0959 -19.5555 -19.3731 -19.3709 -19.3675 -19.3562
   -19.3543 -19.3459 -19.3458 -19.3135 -19.2962 -19.1428 -19.1356 -19.0017
   -18.9499 -18.9494 -18.9206 -18.7544 -18.7476 -18.5219 -18.5119 -18.5004
   -18.4882 -18.4276 -18.4107 -18.3582 -18.3345 -18.3314 -18.3169 -17.0415
   -15.0729 -13.0943 -12.7438 -12.7384 -12.7262 -12.6938 -12.6873 -12.6217
   -12.5446 -12.5123 -12.5075 -12.4566 -12.3942 -12.1317 -12.0461 -12.0332
   -12.0103 -11.9583 -11.9383 -11.5184 -11.4002 -11.3816 -11.3669 -11.3603
   -11.3485 -11.3391 -11.3366 -11.2943 -11.2818 -11.0996 -11.0276 -10.8505
   -10.6987 -10.6868 -10.6527 -10.6439 -10.4913 -10.0460 -10.0127  -9.9788
    -9.9090  -9.8609  -9.7944  -9.3742  -9.3050  -9.3025  -9.2813  -9.2584
    -9.2517  -9.1976  -9.0273  -8.9051  -8.8911  -8.8729  -8.8723  -8.8614
    -8.8595  -8.8556  -8.8439  -8.8281  -8.8057  -8.8049  -8.7983  -8.7976
    -8.7840  -8.7819  -8.7811  -8.7423  -8.7288  -8.6904  -8.6516  -8.6407
    -8.4575  -8.4459  -8.1703  -8.1633  -8.1627  -8.1136  -8.0670  -7.8961
    -7.8403  -7.8013  -7.7864  -7.7846  -7.7118  -7.7110  -7.5286  -7.4737
    -7.4719  -7.4406  -7.4247  -7.4135  -7.4126  -7.3822  -7.3709  -7.3254
    -7.3192  -7.3137  -7.2928  -7.2579  -7.2289  -7.2014  -7.1978  -7.0215
    -7.0038  -6.9725  -6.9363  -6.7920  -6.6337  -6.5132  -6.2135  -6.1661
    -6.1467  -6.1354  -6.0887  -6.0413  -6.0375  -6.0358  -6.0296  -6.0220
    -6.0163  -6.0150  -5.9914  -5.9743  -5.8751  -5.7934  -5.7928  -5.6761
    -5.4953  -5.4269  -5.4224  -5.4054  -5.3409  -5.2374  -5.0984  -5.0970
    -4.7737  -4.7482  -4.7328  -4.7267  -4.6677  -4.6317  -4.5222  -4.4865
    -4.4850  -4.4776  -4.3451  -3.5479   0.0808   0.1873   0.7096   0.7308
     0.7346   0.7407   0.7604   0.7651   0.7974   0.8177   0.8186   0.8219
     0.8254   0.8406   0.8488   0.8830   0.9036   0.9055   0.9325   0.9433
     0.9779   1.1630   1.2481   1.2491   1.2689   1.2771   1.3124   1.3288
     1.3310   1.3339   1.3440   1.3514   1.3902   1.4407   1.4425   1.4433
     1.4504   1.4530   1.4751   1.8863   2.1086   2.1136   2.1138   2.1255
     2.1344   2.1388   2.3296   2.3383   2.3442

 ------ SPIN DOWN ----------


          k = 0.0000 0.0000 0.0000 ( 77329 PWs)   bands (ev):

   -21.7510 -21.5405 -21.3683 -21.3606 -21.3439 -21.2830 -21.2300 -20.8195
   -20.6252 -20.6079 -20.6058 -20.5234 -20.5119 -20.3916 -20.2660 -20.2589
   -20.2395 -20.0967 -20.0862 -19.5487 -19.3697 -19.3691 -19.3654 -19.3544
   -19.3514 -19.3427 -19.3364 -19.3028 -19.2920 -19.1367 -19.1311 -18.9977
   -18.9459 -18.9445 -18.9163 -18.7444 -18.7386 -18.5154 -18.5084 -18.4952
   -18.4851 -18.4235 -18.4031 -18.3563 -18.3310 -18.3276 -18.3125 -16.8919
   -14.7832 -13.0526 -12.7419 -12.7344 -12.7238 -12.6907 -12.6855 -12.6178
   -12.5426 -12.5083 -12.5038 -12.4409 -12.3857 -12.1263 -12.0442 -12.0305
   -12.0055 -11.9466 -11.9301 -11.5085 -11.3942 -11.3775 -11.3653 -11.3589
   -11.3469 -11.3354 -11.3351 -11.2851 -11.2709 -11.0664 -11.0036 -10.8463
   -10.6968 -10.6849 -10.6428 -10.6387 -10.4783 -10.0418 -10.0083  -9.9734
    -9.8988  -9.8463  -9.7786  -9.3714  -9.2971  -9.2871  -9.2770  -9.2540
    -9.2495  -9.1935  -9.0245  -8.9008  -8.8872  -8.8707  -8.8704  -8.8575
    -8.8516  -8.8412  -8.8405  -8.8263  -8.8032  -8.8010  -8.7953  -8.7937
    -8.7807  -8.7797  -8.7779  -8.7201  -8.7145  -8.6396  -8.6293  -8.6236
    -8.4457  -8.4144  -8.1691  -8.1614  -8.1609  -8.0947  -8.0588  -7.8816
    -7.8255  -7.7920  -7.7773  -7.7738  -7.6898  -7.6772  -7.5222  -7.4722
    -7.4689  -7.4385  -7.4233  -7.4117  -7.4077  -7.3810  -7.3689  -7.3230
    -7.3050  -7.3003  -7.2831  -7.2504  -7.1849  -7.1672  -7.1540  -7.0051
    -7.0020  -6.9715  -6.9187  -6.7646  -6.6125  -6.4859  -6.2016  -6.1630
    -6.1448  -6.1326  -6.0729  -6.0351  -6.0323  -6.0289  -6.0182  -6.0181
    -6.0076  -5.9994  -5.9654  -5.9607  -5.8106  -5.7739  -5.7556  -5.6490
    -5.4836  -5.4177  -5.4104  -5.3969  -5.2689  -5.1837  -5.0369  -5.0204
    -4.7596  -4.7389  -4.7204  -4.7170  -4.6307  -4.6184  -4.5170  -4.4780
    -4.4754  -4.4695  -4.1690  -2.8670   0.1678   0.1893   0.7102   0.7361
     0.7405   0.7518   0.7768   0.7821   0.7961   0.8183   0.8218   0.8224
     0.8253   0.8404   0.8515   0.8886   0.9145   0.9201   0.9371   0.9604
     1.0271   1.1779   1.2584   1.2771   1.2805   1.3157   1.3282   1.3296
     1.3332   1.3403   1.3431   1.3692   1.3992   1.4398   1.4416   1.4424
     1.4493   1.4524   1.4782   1.8873   2.1084   2.1131   2.1138   2.1258
     2.1412   2.1525   2.1527   2.2122   2.3432

     highest occupied, lowest unoccupied level (ev):    -3.5479   -2.8670

!    total energy              =   -1940.48613185 Ry
     Harris-Foulkes estimate   =   -1940.48613186 Ry
     estimated scf accuracy    <          1.5E-11 Ry

     total all-electron energy =     -7770.310609 Ry

[...]
     atom:   55    charge:    2.7525    magn:    0.0000    constr:    0.0000
     atom:   56    charge:    2.7515    magn:   -0.0000    constr:    0.0000
     atom:   57    charge:    2.7521    magn:    0.0003    constr:    0.0000
     atom:   58    charge:    2.7540    magn:    0.0039    constr:    0.0000
     atom:   59    charge:    2.7486    magn:    0.0065    constr:    0.0000
     atom:   60    charge:    2.7450    magn:    0.0123    constr:    0.0000
     atom:   61    charge:    2.7577    magn:    0.0012    constr:    0.0000
     atom:   62    charge:    2.7518    magn:   -0.0001    constr:    0.0000
     atom:   63    charge:    2.7525    magn:    0.0000    constr:    0.0000
     atom:   64    charge:    2.7577    magn:    0.0000    constr:    0.0000
     atom:   65    charge:    2.7572    magn:    0.0003    constr:    0.0000
     atom:   66    charge:    2.7567    magn:    0.0159    constr:    0.0000
     atom:   67    charge:    1.6562    magn:    0.1193    constr:    0.0000
     atom:   68    charge:    2.7633    magn:   -0.0023    constr:    0.0000
     atom:   69    charge:    2.7577    magn:    0.0012    constr:    0.0000
     atom:   70    charge:    2.7555    magn:    0.0001    constr:    0.0000
     atom:   71    charge:    2.7558    magn:    0.0000    constr:    0.0000
     atom:   72    charge:    2.7513    magn:    0.0002    constr:    0.0000
     atom:   73    charge:    2.7491    magn:    0.0013    constr:    0.0000
     atom:   74    charge:    2.7341    magn:   -0.0027    constr:    0.0000
     atom:   75    charge:    1.6562    magn:    0.1193    constr:    0.0000
     atom:   76    charge:    2.7450    magn:    0.0123    constr:    0.0000
     atom:   77    charge:    2.7551    magn:    0.0000    constr:    0.0000
     atom:   78    charge:    2.7538    magn:    0.0001    constr:    0.0000
     atom:   79    charge:    2.7517    magn:   -0.0000    constr:    0.0000
     atom:   80    charge:    2.7499    magn:   -0.0001    constr:    0.0000
     atom:   81    charge:    2.7491    magn:    0.0013    constr:    0.0000
     atom:   82    charge:    2.7567    magn:    0.0159    constr:    0.0000
     atom:   83    charge:    2.7486    magn:    0.0065    constr:    0.0000
     atom:   84    charge:    2.7471    magn:    0.0029    constr:    0.0000
     atom:   85    charge:    2.7513    magn:    0.0004    constr:    0.0000
     atom:   86    charge:    2.7523    magn:   -0.0001    constr:    0.0000
     atom:   87    charge:    2.7517    magn:   -0.0000    constr:    0.0000
     atom:   88    charge:    2.7513    magn:    0.0002    constr:    0.0000
     atom:   89    charge:    2.7572    magn:    0.0003    constr:    0.0000
     atom:   90    charge:    2.7540    magn:    0.0039    constr:    0.0000
     atom:   91    charge:    2.7530    magn:   -0.0001    constr:    0.0000
     atom:   92    charge:    2.7571    magn:   -0.0000    constr:    0.0000
     atom:   93    charge:    2.7513    magn:    0.0004    constr:    0.0000
     atom:   94    charge:    2.7538    magn:    0.0001    constr:    0.0000
     atom:   95    charge:    2.7558    magn:    0.0000    constr:    0.0000
     atom:   96    charge:    2.7577    magn:    0.0000    constr:    0.0000
     atom:   97    charge:    2.7521    magn:    0.0003    constr:    0.0000
     atom:   98    charge:    2.7564    magn:    0.0005    constr:    0.0000

     total cpu time spent up to now is     5368.0 secs

     End of self-consistent calculation

 ------ SPIN UP ------------


          k = 0.0000 0.0000 0.0000 ( 77329 PWs)   bands (ev):

   -21.7565 -21.5441 -21.3704 -21.3619 -21.3443 -21.2909 -21.2379 -20.8224
   -20.6291 -20.6122 -20.6108 -20.5280 -20.5156 -20.3924 -20.2726 -20.2649
   -20.2430 -20.1090 -20.0961 -19.5557 -19.3731 -19.3707 -19.3674 -19.3561
   -19.3543 -19.3459 -19.3458 -19.3136 -19.2963 -19.1428 -19.1357 -19.0017
   -18.9498 -18.9493 -18.9206 -18.7546 -18.7475 -18.5219 -18.5119 -18.5003
   -18.4884 -18.4277 -18.4106 -18.3580 -18.3344 -18.3313 -18.3168 -17.0427
   -15.0734 -13.0947 -12.7438 -12.7384 -12.7263 -12.6936 -12.6872 -12.6214
   -12.5445 -12.5122 -12.5073 -12.4567 -12.3943 -12.1317 -12.0462 -12.0331
   -12.0102 -11.9585 -11.9383 -11.5183 -11.4002 -11.3816 -11.3669 -11.3602
   -11.3484 -11.3391 -11.3366 -11.2944 -11.2818 -11.0997 -11.0277 -10.8506
   -10.6985 -10.6867 -10.6527 -10.6439 -10.4914 -10.0460 -10.0127  -9.9788
    -9.9089  -9.8609  -9.7945  -9.3743  -9.3049  -9.3025  -9.2813  -9.2584
    -9.2517  -9.1974  -9.0273  -8.9051  -8.8910  -8.8728  -8.8722  -8.8617
    -8.8594  -8.8555  -8.8437  -8.8279  -8.8057  -8.8048  -8.7984  -8.7976
    -8.7842  -8.7815  -8.7811  -8.7424  -8.7289  -8.6907  -8.6517  -8.6409
    -8.4575  -8.4458  -8.1704  -8.1630  -8.1623  -8.1136  -8.0670  -7.8962
    -7.8403  -7.8013  -7.7864  -7.7847  -7.7118  -7.7110  -7.5289  -7.4739
    -7.4718  -7.4403  -7.4244  -7.4133  -7.4125  -7.3819  -7.3710  -7.3254
    -7.3192  -7.3137  -7.2929  -7.2578  -7.2290  -7.2014  -7.1980  -7.0214
    -7.0038  -6.9722  -6.9361  -6.7923  -6.6335  -6.5134  -6.2137  -6.1660
    -6.1467  -6.1352  -6.0886  -6.0413  -6.0373  -6.0358  -6.0296  -6.0219
    -6.0162  -6.0150  -5.9915  -5.9744  -5.8752  -5.7932  -5.7928  -5.6759
    -5.4953  -5.4268  -5.4223  -5.4054  -5.3409  -5.2375  -5.0990  -5.0971
    -4.7737  -4.7482  -4.7328  -4.7268  -4.6675  -4.6316  -4.5220  -4.4864
    -4.4848  -4.4775  -4.3455  -3.5479   0.0809   0.1873   0.7096   0.7310
     0.7346   0.7408   0.7604   0.7652   0.7974   0.8178   0.8186   0.8219
     0.8255   0.8406   0.8487   0.8831   0.9038   0.9054   0.9326   0.9434
     0.9780   1.1630   1.2481   1.2492   1.2690   1.2772   1.3126   1.3288
     1.3310   1.3340   1.3439   1.3513   1.3901   1.4407   1.4425   1.4433
     1.4506   1.4530   1.4750   1.8863   2.1087   2.1136   2.1156   2.1274
     2.1346   2.1356   2.3327   2.3388   2.3787

 ------ SPIN DOWN ----------


          k = 0.0000 0.0000 0.0000 ( 77329 PWs)   bands (ev):

   -21.7512 -21.5407 -21.3683 -21.3605 -21.3435 -21.2831 -21.2303 -20.8197
   -20.6252 -20.6081 -20.6058 -20.5234 -20.5117 -20.3913 -20.2660 -20.2589
   -20.2396 -20.0969 -20.0863 -19.5489 -19.3695 -19.3692 -19.3652 -19.3542
   -19.3513 -19.3425 -19.3366 -19.3029 -19.2921 -19.1368 -19.1312 -18.9976
   -18.9459 -18.9444 -18.9163 -18.7446 -18.7384 -18.5153 -18.5084 -18.4951
   -18.4852 -18.4236 -18.4030 -18.3561 -18.3309 -18.3275 -18.3124 -16.8931
   -14.7837 -13.0531 -12.7420 -12.7344 -12.7239 -12.6905 -12.6854 -12.6174
   -12.5426 -12.5082 -12.5036 -12.4411 -12.3858 -12.1263 -12.0442 -12.0304
   -12.0054 -11.9468 -11.9301 -11.5084 -11.3942 -11.3775 -11.3652 -11.3588
   -11.3468 -11.3354 -11.3351 -11.2852 -11.2709 -11.0665 -11.0038 -10.8464
   -10.6967 -10.6848 -10.6428 -10.6388 -10.4784 -10.0418 -10.0083  -9.9734
    -9.8987  -9.8463  -9.7787  -9.3715  -9.2970  -9.2871  -9.2770  -9.2540
    -9.2496  -9.1932  -9.0245  -8.9008  -8.8871  -8.8705  -8.8702  -8.8574
    -8.8515  -8.8410  -8.8408  -8.8262  -8.8032  -8.8010  -8.7954  -8.7936
    -8.7809  -8.7794  -8.7779  -8.7202  -8.7146  -8.6398  -8.6297  -8.6238
    -8.4457  -8.4143  -8.1691  -8.1610  -8.1606  -8.0947  -8.0589  -7.8816
    -7.8256  -7.7919  -7.7774  -7.7738  -7.6898  -7.6772  -7.5225  -7.4724
    -7.4688  -7.4382  -7.4230  -7.4116  -7.4075  -7.3806  -7.3691  -7.3230
    -7.3049  -7.3003  -7.2832  -7.2503  -7.1848  -7.1674  -7.1541  -7.0051
    -7.0019  -6.9712  -6.9186  -6.7650  -6.6123  -6.4861  -6.2018  -6.1629
    -6.1448  -6.1325  -6.0728  -6.0350  -6.0323  -6.0287  -6.0182  -6.0179
    -6.0075  -5.9994  -5.9655  -5.9607  -5.8107  -5.7736  -5.7557  -5.6488
    -5.4836  -5.4177  -5.4104  -5.3969  -5.2688  -5.1839  -5.0376  -5.0205
    -4.7596  -4.7389  -4.7203  -4.7171  -4.6305  -4.6184  -4.5169  -4.4779
    -4.4753  -4.4694  -4.1695  -2.8670   0.1680   0.1893   0.7101   0.7362
     0.7406   0.7519   0.7767   0.7823   0.7960   0.8183   0.8218   0.8224
     0.8254   0.8404   0.8515   0.8887   0.9147   0.9200   0.9372   0.9605
     1.0271   1.1779   1.2585   1.2772   1.2804   1.3158   1.3282   1.3296
     1.3333   1.3403   1.3430   1.3692   1.3991   1.4398   1.4416   1.4424
     1.4494   1.4524   1.4781   1.8872   2.1109   2.1187   2.3253   2.3415
     2.3430   2.3515   2.3602   2.3626   2.4319

     highest occupied, lowest unoccupied level (ev):    -3.5479   -2.8670

!    total energy              =   -1940.48613326 Ry
     Harris-Foulkes estimate   =   -1940.48613326 Ry
     estimated scf accuracy    <          8.5E-13 Ry

     total all-electron energy =     -7770.310610 Ry

     The total energy is the sum of the following terms:

     one-electron contribution =  -10659.50655517 Ry
     hartree contribution      =    5415.63272560 Ry
     xc contribution           =    -430.86218072 Ry
     ewald contribution        =    4377.70015508 Ry
     DFT-D3 Dispersion         =      -0.27040296 Ry
     one-center paw contrib.   =    -643.17987511 Ry

     total magnetization       =     1.00 Bohr mag/cell
     absolute magnetization    =     1.20 Bohr mag/cell

     convergence has been achieved in  20 iterations

     negative rho (up, down):  4.867E-01 5.557E-03

     Forces acting on atoms (cartesian axes, Ry/au):

     atom    1 type  1   force =     0.00000265    0.00000489    0.00000000
     atom    2 type  1   force =    -0.00000531   -0.00000124    0.00000000
     atom    3 type  1   force =    -0.00000215   -0.00000974    0.00000000
     atom    4 type  1   force =    -0.00000055   -0.00000408    0.00000000
     atom    5 type  1   force =    -0.00000618    0.00000054    0.00000000
     atom    6 type  1   force =    -0.00000899   -0.00000385    0.00000000
     atom    7 type  1   force =     0.00000141   -0.00000257    0.00000000
     atom    8 type  1   force =     0.00000491    0.00000320    0.00000000
     atom    9 type  1   force =    -0.00000162    0.00000586    0.00000000
     atom   10 type  1   force =    -0.00001053   -0.00000372    0.00000000
     atom   11 type  1   force =    -0.00000342   -0.00000372    0.00000000
     atom   12 type  1   force =     0.00000048   -0.00000094    0.00000000
     atom   13 type  1   force =    -0.00000803    0.00000282    0.00000000
     atom   14 type  1   force =    -0.00000267    0.00000783    0.00000000
     atom   15 type  1   force =     0.00000069   -0.00000198    0.00000000
     atom   16 type  1   force =     0.00000589    0.00000788    0.00000000
     atom   17 type  1   force =    -0.00000768    0.00000679    0.00000000
     atom   18 type  1   force =    -0.00000761   -0.00000437    0.00000000
     atom   19 type  1   force =     0.00000878   -0.00000588    0.00000000
     atom   20 type  1   force =     0.00000086   -0.00000450    0.00000000
     atom   21 type  1   force =    -0.00000553    0.00000217    0.00000000
     atom   22 type  1   force =    -0.00000210    0.00000536    0.00000000
     atom   23 type  1   force =     0.00001540    0.00000274    0.00000000
     atom   24 type  1   force =     0.00000162    0.00001077    0.00000000
     atom   25 type  4   force =    -0.00000680   -0.00000092    0.00000000
     atom   26 type  1   force =    -0.00000307    0.00000789    0.00000000
     atom   27 type  1   force =    -0.00000043    0.00000599    0.00000000
     atom   28 type  1   force =     0.00000745    0.00000181    0.00000000
     atom   29 type  1   force =     0.00000378    0.00000293    0.00000000
     atom   30 type  1   force =     0.00001488   -0.00000585    0.00000000
     atom   31 type  1   force =     0.00001390   -0.00000696    0.00000000
     atom   32 type  1   force =    -0.00000840   -0.00000599    0.00000000
     atom   33 type  1   force =    -0.00000881    0.00000237    0.00000000
     atom   34 type  1   force =    -0.00000125    0.00001138    0.00000000
     atom   35 type  1   force =     0.00000726    0.00000543    0.00000000
     atom   36 type  1   force =     0.00000550   -0.00000333    0.00000000
     atom   37 type  1   force =     0.00000822   -0.00000363    0.00000000
     atom   38 type  1   force =     0.00001376   -0.00000700    0.00000000
     atom   39 type  1   force =     0.00000711   -0.00000961    0.00000000
     atom   40 type  1   force =     0.00000139   -0.00000666    0.00000000
     atom   41 type  1   force =     0.00000116   -0.00000123    0.00000000
     atom   42 type  1   force =     0.00000156    0.00000409    0.00000000
     atom   43 type  1   force =    -0.00000069   -0.00000074    0.00000000
     atom   44 type  1   force =     0.00000518   -0.00000192    0.00000000
     atom   45 type  1   force =    -0.00000158   -0.00000270    0.00000000
     atom   46 type  1   force =    -0.00000659    0.00000200    0.00000000
     atom   47 type  1   force =     0.00000016   -0.00000350    0.00000000
     atom   48 type  1   force =    -0.00000410   -0.00000915    0.00000000
     atom   49 type  1   force =    -0.00000499   -0.00000797    0.00000000
     atom   50 type  2   force =     0.00000612   -0.00000920    0.00000000
     atom   51 type  2   force =     0.00000914   -0.00000952    0.00000000
     atom   52 type  2   force =    -0.00000599   -0.00000140    0.00000000
     atom   53 type  2   force =    -0.00000893    0.00000864    0.00000000
     atom   54 type  2   force =     0.00000056    0.00000877    0.00000000
     atom   55 type  2   force =     0.00000258    0.00000960    0.00000000
     atom   56 type  2   force =     0.00000475   -0.00000359    0.00000000
     atom   57 type  2   force =     0.00000178   -0.00000602    0.00000000
     atom   58 type  2   force =     0.00000554   -0.00000317    0.00000000
     atom   59 type  2   force =    -0.00000330   -0.00000125    0.00000000
     atom   60 type  2   force =    -0.00001640    0.00000510    0.00000000
     atom   61 type  2   force =    -0.00000824    0.00000945    0.00000000
     atom   62 type  2   force =    -0.00000909    0.00000844    0.00000000
     atom   63 type  2   force =    -0.00000296   -0.00000552    0.00000000
     atom   64 type  2   force =    -0.00000175   -0.00001461    0.00000000
     atom   65 type  2   force =     0.00000540   -0.00000800    0.00000000
     atom   66 type  2   force =    -0.00000425   -0.00001018    0.00000000
     atom   67 type  3   force =    -0.00002422    0.00000239    0.00000000
     atom   68 type  2   force =    -0.00000968    0.00000719    0.00000000
     atom   69 type  2   force =    -0.00001287    0.00000379    0.00000000
     atom   70 type  2   force =    -0.00000925   -0.00000281    0.00000000
     atom   71 type  2   force =    -0.00001068   -0.00000924    0.00000000
     atom   72 type  2   force =     0.00000186   -0.00001143    0.00000000
     atom   73 type  2   force =     0.00000355   -0.00000736    0.00000000
     atom   74 type  2   force =    -0.00000925    0.00000823    0.00000000
     atom   75 type  5   force =    -0.00001040    0.00002359    0.00000000
     atom   76 type  2   force =    -0.00000878    0.00001009    0.00000000
     atom   77 type  2   force =    -0.00001281    0.00000461    0.00000000
     atom   78 type  2   force =    -0.00000708    0.00000216    0.00000000
     atom   79 type  2   force =     0.00000590   -0.00001153    0.00000000
     atom   80 type  2   force =     0.00001012   -0.00000706    0.00000000
     atom   81 type  2   force =     0.00000715   -0.00000151    0.00000000
     atom   82 type  2   force =     0.00000155    0.00000525    0.00000000
     atom   83 type  2   force =    -0.00000639    0.00000238    0.00000000
     atom   84 type  2   force =    -0.00000288    0.00000599    0.00000000
     atom   85 type  2   force =     0.00000432    0.00000324    0.00000000
     atom   86 type  2   force =     0.00000223   -0.00000255    0.00000000
     atom   87 type  2   force =     0.00001193   -0.00000119    0.00000000
     atom   88 type  2   force =     0.00001053    0.00000023    0.00000000
     atom   89 type  2   force =     0.00000951   -0.00000306    0.00000000
     atom   90 type  2   force =     0.00000397   -0.00000090    0.00000000
     atom   91 type  2   force =     0.00001034   -0.00000077    0.00000000
     atom   92 type  2   force =     0.00001403   -0.00000589    0.00000000
     atom   93 type  2   force =     0.00000140   -0.00000573    0.00000000
     atom   94 type  2   force =    -0.00000370    0.00000506    0.00000000
     atom   95 type  2   force =     0.00000411    0.00001133    0.00000000
     atom   96 type  2   force =     0.00001252    0.00000932    0.00000000
     atom   97 type  2   force =     0.00000929    0.00000629    0.00000000
     atom   98 type  2   force =     0.00001378    0.00000139    0.00000000

     Total force =     0.000100     Total SCF correction =     0.000001


     Computing stress (Cartesian axis) and pressure


     negative rho (up, down):  4.867E-01 5.557E-03
          total   stress  (Ry/bohr**3)                   (kbar)     P=   -0.16
   0.00000001  -0.00000001   0.00000000          0.00     -0.00      0.00
  -0.00000001  -0.00000000   0.00000000         -0.00     -0.00      0.00
   0.00000000   0.00000000  -0.00000337          0.00      0.00     -0.50


     Writing output data file C2Cn.save/
 
     init_run     :      9.44s CPU      9.88s WALL (       2 calls)
     electrons    :   5099.67s CPU   5150.80s WALL (      11 calls)
     update_pot   :     31.91s CPU     32.10s WALL (       9 calls)
     forces       :     42.59s CPU     44.01s WALL (      11 calls)
     stress       :    132.58s CPU    133.56s WALL (      11 calls)

     Called by init_run:
     wfcinit      :      3.66s CPU      3.90s WALL (       2 calls)
     potinit      :      2.05s CPU      2.09s WALL (       2 calls)
     hinit0       :      2.81s CPU      2.87s WALL (       2 calls)

     Called by electrons:
     c_bands      :   4958.19s CPU   5000.38s WALL (     122 calls)
     sum_band     :     71.75s CPU     74.47s WALL (     122 calls)
     v_of_rho     :     23.41s CPU     24.21s WALL (     124 calls)
     newd         :      9.05s CPU     10.37s WALL (     124 calls)
     PAW_pot      :     26.67s CPU     27.01s WALL (     133 calls)
     mix_rho      :      1.83s CPU      2.16s WALL (     122 calls)

     Called by c_bands:
     init_us_2    :      4.58s CPU      4.72s WALL (     554 calls)
     rcgdiagg     :   4826.40s CPU   4865.18s WALL (     272 calls)
     wfcrot       :    131.07s CPU    134.08s WALL (     236 calls)

     Called by sum_band:
     sum_band:bec :      0.18s CPU      0.18s WALL (     262 calls)
     addusdens    :      8.21s CPU     10.02s WALL (     122 calls)

     Called by *cgdiagg:
     h_psi        :   2468.77s CPU   2489.60s WALL (  213820 calls)
     s_psi        :   1375.09s CPU   1386.46s WALL (  427404 calls)
     rdiaghg      :      4.28s CPU      4.45s WALL (     236 calls)

     Called by h_psi:
     h_psi:pot    :   2466.13s CPU   2486.94s WALL (  213820 calls)
     h_psi:calbec :    863.62s CPU    870.39s WALL (  213820 calls)
     vloc_psi     :    875.41s CPU    885.19s WALL (  213820 calls)
     add_vuspsi   :    724.21s CPU    729.16s WALL (  213820 calls)
     hs_1psi      :   3053.24s CPU   3077.58s WALL (  213584 calls)
     s_1psi       :   1428.97s CPU   1439.87s WALL (  213584 calls)

     General routines
     calbec       :   1621.24s CPU   1635.04s WALL (  427776 calls)
     fft          :     22.44s CPU     22.84s WALL (    2476 calls)
     ffts         :      0.95s CPU      0.97s WALL (     244 calls)
     fftw         :    825.92s CPU    835.16s WALL (  515820 calls)
 
     Parallel routines
     fft_scatt_xy :     77.55s CPU     78.22s WALL (  518540 calls)
     fft_scatt_yz :    249.61s CPU    253.03s WALL (  518540 calls)
 
     PWSCF        :      1h28m CPU      1h29m WALL

 
   This run was terminated on:   1:31:42   9Jun2021            

=------------------------------------------------------------------------------=
   JOB DONE.
=------------------------------------------------------------------------------=
