
     Program PWSCF v.6.4.1 starts on  1Jul2021 at 13:17:20 

     This program is part of the open-source Quantum ESPRESSO suite
     for quantum simulation of materials; please cite
         "P. Giannozzi et al., J. Phys.:Condens. Matter 21 395502 (2009);
         "P. Giannozzi et al., J. Phys.:Condens. Matter 29 465901 (2017);
          URL http://www.quantum-espresso.org", 
     in publications or presentations arising from this work. More details at
     http://www.quantum-espresso.org/quote

     Parallel version (MPI), running on    64 processors

     MPI processes distributed on     2 nodes
     R & G space division:  proc/nbgrp/npool/nimage =      64
     Waiting for input...
     Reading input from standard input

     Current dimensions of program PWSCF are:
     Max number of different atomic species (ntypx) = 10
     Max number of k-points (npk) =  40000
     Max angular momentum in pseudopotentials (lmaxx) =  3
               file N.pbe-n-kjpaw_psl.1.0.0.UPF: wavefunction(s)  2S renormalized
               file C.pbe-n-kjpaw_psl.1.0.0.UPF: wavefunction(s)  2S 2P renormalized
               file C.pbe-n-kjpaw_psl.1.0.0.UPF: wavefunction(s)  2S 2P renormalized
               file C.pbe-n-kjpaw_psl.1.0.0.UPF: wavefunction(s)  2S 2P renormalized

     --------------------------------------------
     Parameters for DFT-D3 Dispersion Correction:
     --------------------------------------------
       Reference C6 values for interpolation: 

         atom   Coordination number   C6
         B          0.000           214.36
         B          0.971           150.74
         B          1.944           106.23
         B          2.913            62.89
         B          4.586            56.06
         C1         0.000            98.23
         C1         0.987            86.49
         C1         1.998            58.72
         C1         2.999            51.56
         C1         3.984            36.41
         C2         0.000            98.23
         C2         0.987            86.49
         C2         1.998            58.72
         C2         2.999            51.56
         C2         3.984            36.41
         C3         0.000            98.23
         C3         0.987            86.49
         C3         1.998            58.72
         C3         2.999            51.56
         C3         3.984            36.41
         N          0.000            50.54
         N          0.994            44.25
         N          2.014            39.35
         N          2.990            31.16

       Values used:

         atom   Coordination number  R0_AB[au]  C6      C8
         B          3.323            3.039     62.90   2506.30
         B          3.323            3.039     62.90   2506.30
         B          3.323            3.039     62.90   2506.30
         B          3.323            3.039     62.90   2506.31
         B          3.323            3.039     62.90   2506.30
         B          3.323            3.039     62.90   2506.30
         B          3.323            3.039     62.90   2506.30
         B          3.323            3.039     62.90   2506.30
         B          3.323            3.039     62.90   2506.30
         B          3.325            3.039     62.90   2506.25
         B          3.323            3.039     62.90   2506.30
         B          3.323            3.039     62.90   2506.30
         B          3.323            3.039     62.90   2506.30
         B          3.323            3.039     62.90   2506.30
         B          3.323            3.039     62.90   2506.30
         B          3.323            3.039     62.90   2506.30
         B          3.317            3.039     62.90   2506.45
         B          3.319            3.039     62.90   2506.40
         B          3.323            3.039     62.90   2506.29
         B          3.323            3.039     62.90   2506.30
         B          3.323            3.039     62.90   2506.30
         B          3.323            3.039     62.90   2506.30
         B          3.323            3.039     62.90   2506.30
         B          3.317            3.039     62.90   2506.43
         C2         3.274            2.750     49.03   1417.98
         B          3.319            3.039     62.90   2506.40
         B          3.323            3.039     62.90   2506.30
         B          3.323            3.039     62.90   2506.31
         B          3.323            3.039     62.90   2506.30
         B          3.323            3.039     62.90   2506.30
         B          3.323            3.039     62.90   2506.30
         B          3.317            3.039     62.90   2506.43
         B          3.317            3.039     62.90   2506.45
         B          3.325            3.039     62.90   2506.25
         B          3.323            3.039     62.90   2506.30
         B          3.323            3.039     62.90   2506.30
         B          3.323            3.039     62.90   2506.30
         B          3.323            3.039     62.90   2506.30
         B          3.323            3.039     62.90   2506.30
         B          3.323            3.039     62.90   2506.30
         B          3.323            3.039     62.90   2506.30
         B          3.323            3.039     62.90   2506.30
         B          3.323            3.039     62.90   2506.30
         B          3.323            3.039     62.90   2506.30
         B          3.323            3.039     62.90   2506.30
         B          3.323            3.039     62.90   2506.30
         B          3.323            3.039     62.90   2506.30
         B          3.323            3.039     62.90   2506.30
         B          3.323            3.039     62.90   2506.30
         N          3.129            2.478     31.22    688.75
         N          3.129            2.478     31.22    688.75
         N          3.129            2.478     31.22    688.75
         N          3.129            2.478     31.22    688.75
         N          3.129            2.478     31.22    688.75
         N          3.129            2.478     31.22    688.75
         N          3.129            2.478     31.22    688.75
         N          3.129            2.478     31.22    688.75
         N          3.129            2.478     31.22    688.75
         N          3.136            2.478     31.22    688.68
         N          3.136            2.478     31.22    688.68
         N          3.129            2.478     31.22    688.75
         N          3.129            2.478     31.22    688.75
         N          3.129            2.478     31.22    688.75
         N          3.129            2.478     31.22    688.75
         N          3.129            2.478     31.22    688.75
         N          3.135            2.478     31.22    688.68
         C1         3.195            2.750     50.11   1449.31
         N          3.143            2.478     31.21    688.62
         N          3.129            2.478     31.22    688.75
         N          3.129            2.478     31.22    688.75
         N          3.129            2.478     31.22    688.75
         N          3.129            2.478     31.22    688.75
         N          3.129            2.478     31.22    688.75
         N          3.143            2.478     31.21    688.62
         C3         3.195            2.750     50.11   1449.31
         N          3.136            2.478     31.22    688.68
         N          3.129            2.478     31.22    688.75
         N          3.129            2.478     31.22    688.75
         N          3.129            2.478     31.22    688.75
         N          3.129            2.478     31.22    688.75
         N          3.129            2.478     31.22    688.75
         N          3.135            2.478     31.22    688.68
         N          3.136            2.478     31.22    688.68
         N          3.129            2.478     31.22    688.75
         N          3.129            2.478     31.22    688.75
         N          3.129            2.478     31.22    688.75
         N          3.129            2.478     31.22    688.75
         N          3.129            2.478     31.22    688.75
         N          3.129            2.478     31.22    688.75
         N          3.129            2.478     31.22    688.75
         N          3.129            2.478     31.22    688.75
         N          3.129            2.478     31.22    688.75
         N          3.129            2.478     31.22    688.75
         N          3.129            2.478     31.22    688.75
         N          3.129            2.478     31.22    688.75
         N          3.129            2.478     31.22    688.75
         N          3.129            2.478     31.22    688.75
         N          3.129            2.478     31.22    688.75

         Molecular C6 ( Ry / a.u.^6 ) =    437644.59


     gamma-point specific algorithms are used

     Subspace diagonalization in iterative solution of the eigenvalue problem:
     one sub-group per band group will be used
     scalapack distributed-memory algorithm (size of sub-group:  5*  5 procs)

     Message from routine setup:
     DEPRECATED: symmetry with ibrav=0, use correct ibrav instead
 
     Parallelization info
     --------------------
     sticks:   dense  smooth     PW     G-vecs:    dense   smooth      PW
     Min         188     188     46                19260    19260    2398
     Max         190     190     48                19286    19286    2416
     Sum       12145   12145   3049              1233789  1233789  154157
 


     bravais-lattice index     =            0
     lattice parameter (alat)  =      33.2346  a.u.
     unit-cell volume          =   36104.5892 (a.u.)^3
     number of atoms/cell      =           98
     number of atomic types    =            5
     number of electrons       =       391.00
     number of Kohn-Sham states=          245
     kinetic-energy cutoff     =      40.0000  Ry
     charge density cutoff     =     160.0000  Ry
     convergence threshold     =      1.0E-06
     mixing beta               =       0.7000
     number of iterations used =            8  plain     mixing
     Exchange-correlation      = SLA PW PBX PBC ( 1  4  3  4 0 0)
     Using LIBXC version       =    4   3   4
     nstep                     =           50


     celldm(1)=  33.234611  celldm(2)=   0.000000  celldm(3)=   0.000000
     celldm(4)=   0.000000  celldm(5)=   0.000000  celldm(6)=   0.000000

     crystal axes: (cart. coord. in units of alat)
               a(1) = (   0.999334   0.000000   0.000000 )  
               a(2) = (  -0.499667   0.865449   0.000000 )  
               a(3) = (   0.000000   0.000000   1.137204 )  

     reciprocal axes: (cart. coord. in units 2 pi/alat)
               b(1) = (  1.000666  0.577735  0.000000 )  
               b(2) = (  0.000000  1.155470  0.000000 )  
               b(3) = (  0.000000  0.000000  0.879350 )  


     PseudoPot. # 1 for B  read from file:
     ./pseudo/B.pbe-n-kjpaw_psl.1.0.0.UPF
     MD5 check sum: 8c825a5969375aca5c2c6ad5945b3059
     Pseudo is Projector augmented-wave + core cor, Zval =  3.0
     Generated using "atomic" code by A. Dal Corso v.6.3
     Shape of augmentation charge: PSQ
     Using radial grid of 1059 points,  4 beta functions with: 
                l(1) =   0
                l(2) =   0
                l(3) =   1
                l(4) =   1
     Q(r) pseudized with 0 coefficients 


     PseudoPot. # 2 for N  read from file:
     ./pseudo/N.pbe-n-kjpaw_psl.1.0.0.UPF
     MD5 check sum: 14c48229446f9f2d411169a3abcbc3fa
     Pseudo is Projector augmented-wave + core cor, Zval =  5.0
     Generated using "atomic" code by A. Dal Corso v.6.3
     Shape of augmentation charge: PSQ
     Using radial grid of 1085 points,  4 beta functions with: 
                l(1) =   0
                l(2) =   0
                l(3) =   1
                l(4) =   1
     Q(r) pseudized with 0 coefficients 


     PseudoPot. # 3 for C  read from file:
     ./pseudo/C.pbe-n-kjpaw_psl.1.0.0.UPF
     MD5 check sum: 5f16ad9a65e90284d1d834d4ab3b0f7d
     Pseudo is Projector augmented-wave + core cor, Zval =  4.0
     Generated using "atomic" code by A. Dal Corso v.6.3
     Shape of augmentation charge: PSQ
     Using radial grid of 1073 points,  4 beta functions with: 
                l(1) =   0
                l(2) =   0
                l(3) =   1
                l(4) =   1
     Q(r) pseudized with 0 coefficients 


     PseudoPot. # 4 for C  read from file:
     ./pseudo/C.pbe-n-kjpaw_psl.1.0.0.UPF
     MD5 check sum: 5f16ad9a65e90284d1d834d4ab3b0f7d
     Pseudo is Projector augmented-wave + core cor, Zval =  4.0
     Generated using "atomic" code by A. Dal Corso v.6.3
     Shape of augmentation charge: PSQ
     Using radial grid of 1073 points,  4 beta functions with: 
                l(1) =   0
                l(2) =   0
                l(3) =   1
                l(4) =   1
     Q(r) pseudized with 0 coefficients 


     PseudoPot. # 5 for C  read from file:
     ./pseudo/C.pbe-n-kjpaw_psl.1.0.0.UPF
     MD5 check sum: 5f16ad9a65e90284d1d834d4ab3b0f7d
     Pseudo is Projector augmented-wave + core cor, Zval =  4.0
     Generated using "atomic" code by A. Dal Corso v.6.3
     Shape of augmentation charge: PSQ
     Using radial grid of 1073 points,  4 beta functions with: 
                l(1) =   0
                l(2) =   0
                l(3) =   1
                l(4) =   1
     Q(r) pseudized with 0 coefficients 


     atomic species   valence    mass     pseudopotential
        B              3.00    10.00000     B ( 1.00)
        N              5.00    14.00000     N ( 1.00)
        C1             4.00    12.00000     C ( 1.00)
        C2             4.00    12.00000     C ( 1.00)
        C3             4.00    12.00000     C ( 1.00)

     Starting magnetic structure 
     atomic species   magnetization
        B            0.000
        N            0.000
        C1           1.000
        C2           0.000
        C3           0.000

      2 Sym. Ops. (no inversion) found



   Cartesian axes

     site n.     atom                  positions (alat units)
         1           B   tau(   1) = (  -0.0000000   0.0824309   0.5686018  )
         2           B   tau(   2) = (  -0.0713829   0.2060622   0.5686018  )
         3           B   tau(   3) = (  -0.1427568   0.3296890   0.5686018  )
         4           B   tau(   4) = (  -0.2141395   0.4533331   0.5686018  )
         5           B   tau(   5) = (  -0.2855266   0.5769736   0.5686018  )
         6           B   tau(   6) = (  -0.3569036   0.7005986   0.5686018  )
         7           B   tau(   7) = (  -0.4282799   0.8242336   0.5686018  )
         8           B   tau(   8) = (   0.1427700   0.0824283   0.5686018  )
         9           B   tau(   9) = (   0.0713829   0.2060622   0.5686018  )
        10           B   tau(  10) = (  -0.0000000   0.3296942   0.5686018  )
        11           B   tau(  11) = (  -0.0713745   0.4533335   0.5686018  )
        12           B   tau(  12) = (  -0.1427567   0.5769711   0.5686018  )
        13           B   tau(  13) = (  -0.2141437   0.7006019   0.5686018  )
        14           B   tau(  14) = (  -0.2855207   0.8242373   0.5686018  )
        15           B   tau(  15) = (   0.2855205   0.0824268   0.5686018  )
        16           B   tau(  16) = (   0.2141440   0.2060546   0.5686018  )
        17           B   tau(  17) = (   0.1427568   0.3296890   0.5686018  )
        18           B   tau(  18) = (   0.0713735   0.4533335   0.5686018  )
        19           B   tau(  19) = (  -0.0000005   0.5769663   0.5686018  )
        20           B   tau(  20) = (  -0.0713827   0.7005944   0.5686018  )
        21           B   tau(  21) = (  -0.1427698   0.8242355   0.5686018  )
        22           B   tau(  22) = (   0.4282797   0.0824299   0.5686018  )
        23           B   tau(  23) = (   0.3569027   0.2060579   0.5686018  )
        24           B   tau(  24) = (   0.2855263   0.3296861   0.5686018  )
        25           C2  tau(  25) = (   0.2141385   0.4533331   0.5686018  )
        26           B   tau(  26) = (   0.1427557   0.5769711   0.5686018  )
        27           B   tau(  27) = (   0.0713817   0.7005944   0.5686018  )
        28           B   tau(  28) = (  -0.0000005   0.8242327   0.5686018  )
        29           B   tau(  29) = (   0.5710548   0.0824299   0.5686018  )
        30           B   tau(  30) = (   0.4996677   0.2060636   0.5686018  )
        31           B   tau(  31) = (   0.4282907   0.3296923   0.5686018  )
        32           B   tau(  32) = (   0.3569138   0.4533330   0.5686018  )
        33           B   tau(  33) = (   0.2855266   0.5769736   0.5686018  )
        34           B   tau(  34) = (   0.2141437   0.7006019   0.5686018  )
        35           B   tau(  35) = (   0.1427698   0.8242355   0.5686018  )
        36           B   tau(  36) = (   0.7138140   0.0824268   0.5686018  )
        37           B   tau(  37) = (   0.6424318   0.2060579   0.5686018  )
        38           B   tau(  38) = (   0.5710448   0.3296923   0.5686018  )
        39           B   tau(  39) = (   0.4996672   0.4533333   0.5686018  )
        40           B   tau(  40) = (   0.4282907   0.5769676   0.5686018  )
        41           B   tau(  41) = (   0.3569036   0.7005986   0.5686018  )
        42           B   tau(  42) = (   0.2855207   0.8242373   0.5686018  )
        43           B   tau(  43) = (   0.8565645   0.0824283   0.5686018  )
        44           B   tau(  44) = (   0.7851905   0.2060546   0.5686018  )
        45           B   tau(  45) = (   0.7138082   0.3296861   0.5686018  )
        46           B   tau(  46) = (   0.6424207   0.4533330   0.5686018  )
        47           B   tau(  47) = (   0.5710438   0.5769676   0.5686018  )
        48           B   tau(  48) = (   0.4996672   0.7005925   0.5686018  )
        49           B   tau(  49) = (   0.4282799   0.8242336   0.5686018  )
        50           N   tau(  50) = (   0.0713853   0.0412143   0.5686018  )
        51           N   tau(  51) = (   0.0000000   0.1648537   0.5686018  )
        52           N   tau(  52) = (  -0.0713781   0.2884819   0.5686018  )
        53           N   tau(  53) = (  -0.1427563   0.4121169   0.5686018  )
        54           N   tau(  54) = (  -0.2141417   0.5357601   0.5686018  )
        55           N   tau(  55) = (  -0.2855237   0.6593929   0.5686018  )
        56           N   tau(  56) = (  -0.3568998   0.7830222   0.5686018  )
        57           N   tau(  57) = (   0.2141455   0.0412121   0.5686018  )
        58           N   tau(  58) = (   0.1427635   0.1648494   0.5686018  )
        59           N   tau(  59) = (   0.0713781   0.2884819   0.5686018  )
        60           N   tau(  60) = (   0.0000000   0.4121169   0.5686018  )
        61           N   tau(  61) = (  -0.0713787   0.5357561   0.5686018  )
        62           N   tau(  62) = (  -0.1427636   0.6593906   0.5686018  )
        63           N   tau(  63) = (  -0.2141456   0.7830234   0.5686018  )
        64           N   tau(  64) = (   0.3568998   0.0412132   0.5686018  )
        65           N   tau(  65) = (   0.2855237   0.1648472   0.5686018  )
        66           N   tau(  66) = (   0.2141416   0.2884777   0.5686018  )
        67           C1  tau(  67) = (   0.1427563   0.4121169   0.5686018  )
        68           N   tau(  68) = (   0.0713777   0.5357561   0.5686018  )
        69           N   tau(  69) = (  -0.0000005   0.6593868   0.5686018  )
        70           N   tau(  70) = (  -0.0713854   0.7830212   0.5686018  )
        71           N   tau(  71) = (   0.4996677   0.0412149   0.5686018  )
        72           N   tau(  72) = (   0.4282857   0.1648522   0.5686018  )
        73           N   tau(  73) = (   0.3569096   0.2884793   0.5686018  )
        74           N   tau(  74) = (   0.2855275   0.4121166   0.5686018  )
        75           C3  tau(  75) = (   0.2141417   0.5357601   0.5686018  )
        76           N   tau(  76) = (   0.1427636   0.6593906   0.5686018  )
        77           N   tau(  77) = (   0.0713854   0.7830212   0.5686018  )
        78           N   tau(  78) = (   0.6424346   0.0412132   0.5686018  )
        79           N   tau(  79) = (   0.5710498   0.1648522   0.5686018  )
        80           N   tau(  80) = (   0.4996677   0.2884827   0.5686018  )
        81           N   tau(  81) = (   0.4282916   0.4121166   0.5686018  )
        82           N   tau(  82) = (   0.3569090   0.5357581   0.5686018  )
        83           N   tau(  83) = (   0.2855237   0.6593929   0.5686018  )
        84           N   tau(  84) = (   0.2141456   0.7830234   0.5686018  )
        85           N   tau(  85) = (   0.7851890   0.0412121   0.5686018  )
        86           N   tau(  86) = (   0.7138108   0.1648472   0.5686018  )
        87           N   tau(  87) = (   0.6424259   0.2884793   0.5686018  )
        88           N   tau(  88) = (   0.5710439   0.4121166   0.5686018  )
        89           N   tau(  89) = (   0.4996672   0.5357547   0.5686018  )
        90           N   tau(  90) = (   0.4282852   0.6593876   0.5686018  )
        91           N   tau(  91) = (   0.3568998   0.7830222   0.5686018  )
        92           N   tau(  92) = (   0.9279491   0.0412143   0.5686018  )
        93           N   tau(  93) = (   0.8565710   0.1648494   0.5686018  )
        94           N   tau(  94) = (   0.7851929   0.2884777   0.5686018  )
        95           N   tau(  95) = (   0.7138080   0.4121166   0.5686018  )
        96           N   tau(  96) = (   0.6424255   0.5357581   0.5686018  )
        97           N   tau(  97) = (   0.5710493   0.6593876   0.5686018  )
        98           N   tau(  98) = (   0.4996672   0.7830203   0.5686018  )

     number of k points=     1
                       cart. coord. in units 2pi/alat
        k(    1) = (   0.0000000   0.0000000   0.0000000), wk =   1.0000000

     Dense  grid:   616895 G-vectors     FFT dimensions: ( 135, 135, 160)

     Occupations read from input 

      Spin-up

        1.0000   1.0000   1.0000   1.0000   1.0000   1.0000   1.0000   1.0000
        1.0000   1.0000   1.0000   1.0000   1.0000   1.0000   1.0000   1.0000
        1.0000   1.0000   1.0000   1.0000   1.0000   1.0000   1.0000   1.0000
        1.0000   1.0000   1.0000   1.0000   1.0000   1.0000   1.0000   1.0000
        1.0000   1.0000   1.0000   1.0000   1.0000   1.0000   1.0000   1.0000
        1.0000   1.0000   1.0000   1.0000   1.0000   1.0000   1.0000   1.0000
        1.0000   1.0000   1.0000   1.0000   1.0000   1.0000   1.0000   1.0000
        1.0000   1.0000   1.0000   1.0000   1.0000   1.0000   1.0000   1.0000
        1.0000   1.0000   1.0000   1.0000   1.0000   1.0000   1.0000   1.0000
        1.0000   1.0000   1.0000   1.0000   1.0000   1.0000   1.0000   1.0000
        1.0000   1.0000   1.0000   1.0000   1.0000   1.0000   1.0000   1.0000
        1.0000   1.0000   1.0000   1.0000   1.0000   1.0000   1.0000   1.0000
        1.0000   1.0000   1.0000   1.0000   1.0000   1.0000   1.0000   1.0000
        1.0000   1.0000   1.0000   1.0000   1.0000   1.0000   1.0000   1.0000
        1.0000   1.0000   1.0000   1.0000   1.0000   1.0000   1.0000   1.0000
        1.0000   1.0000   1.0000   1.0000   1.0000   1.0000   1.0000   1.0000
        1.0000   1.0000   1.0000   1.0000   1.0000   1.0000   1.0000   1.0000
        1.0000   1.0000   1.0000   1.0000   1.0000   1.0000   1.0000   1.0000
        1.0000   1.0000   1.0000   1.0000   1.0000   1.0000   1.0000   1.0000
        1.0000   1.0000   1.0000   1.0000   1.0000   1.0000   1.0000   1.0000
        1.0000   1.0000   1.0000   1.0000   1.0000   1.0000   1.0000   1.0000
        1.0000   1.0000   1.0000   1.0000   1.0000   1.0000   1.0000   1.0000
        1.0000   1.0000   1.0000   1.0000   1.0000   1.0000   1.0000   1.0000
        1.0000   1.0000   1.0000   1.0000   1.0000   1.0000   1.0000   1.0000
        1.0000   1.0000   1.0000   1.0000   0.0000   0.0000   0.0000   0.0000
        0.0000   0.0000   0.0000   0.0000   0.0000   0.0000   0.0000   0.0000
        0.0000   0.0000   0.0000   0.0000   0.0000   0.0000   0.0000   0.0000
        0.0000   0.0000   0.0000   0.0000   0.0000   0.0000   0.0000   0.0000
        0.0000   0.0000   0.0000   0.0000   0.0000   0.0000   0.0000   0.0000
        0.0000   0.0000   0.0000   0.0000   0.0000   0.0000   0.0000   0.0000
        0.0000   0.0000   0.0000   0.0000   0.0000

      Spin-down

        1.0000   1.0000   1.0000   1.0000   1.0000   1.0000   1.0000   1.0000
        1.0000   1.0000   1.0000   1.0000   1.0000   1.0000   1.0000   1.0000
        1.0000   1.0000   1.0000   1.0000   1.0000   1.0000   1.0000   1.0000
        1.0000   1.0000   1.0000   1.0000   1.0000   1.0000   1.0000   1.0000
        1.0000   1.0000   1.0000   1.0000   1.0000   1.0000   1.0000   1.0000
        1.0000   1.0000   1.0000   1.0000   1.0000   1.0000   1.0000   1.0000
        1.0000   1.0000   1.0000   1.0000   1.0000   1.0000   1.0000   1.0000
        1.0000   1.0000   1.0000   1.0000   1.0000   1.0000   1.0000   1.0000
        1.0000   1.0000   1.0000   1.0000   1.0000   1.0000   1.0000   1.0000
        1.0000   1.0000   1.0000   1.0000   1.0000   1.0000   1.0000   1.0000
        1.0000   1.0000   1.0000   1.0000   1.0000   1.0000   1.0000   1.0000
        1.0000   1.0000   1.0000   1.0000   1.0000   1.0000   1.0000   1.0000
        1.0000   1.0000   1.0000   1.0000   1.0000   1.0000   1.0000   1.0000
        1.0000   1.0000   1.0000   1.0000   1.0000   1.0000   1.0000   1.0000
        1.0000   1.0000   1.0000   1.0000   1.0000   1.0000   1.0000   1.0000
        1.0000   1.0000   1.0000   1.0000   1.0000   1.0000   1.0000   1.0000
        1.0000   1.0000   1.0000   1.0000   1.0000   1.0000   1.0000   1.0000
        1.0000   1.0000   1.0000   1.0000   1.0000   1.0000   1.0000   1.0000
        1.0000   1.0000   1.0000   1.0000   1.0000   1.0000   1.0000   1.0000
        1.0000   1.0000   1.0000   1.0000   1.0000   1.0000   1.0000   1.0000
        1.0000   1.0000   1.0000   1.0000   1.0000   1.0000   1.0000   1.0000
        1.0000   1.0000   1.0000   1.0000   1.0000   1.0000   1.0000   1.0000
        1.0000   1.0000   1.0000   1.0000   1.0000   1.0000   1.0000   1.0000
        1.0000   1.0000   1.0000   1.0000   1.0000   1.0000   1.0000   1.0000
        1.0000   1.0000   0.0000   1.0000   0.0000   0.0000   0.0000   0.0000
        0.0000   0.0000   0.0000   0.0000   0.0000   0.0000   0.0000   0.0000
        0.0000   0.0000   0.0000   0.0000   0.0000   0.0000   0.0000   0.0000
        0.0000   0.0000   0.0000   0.0000   0.0000   0.0000   0.0000   0.0000
        0.0000   0.0000   0.0000   0.0000   0.0000   0.0000   0.0000   0.0000
        0.0000   0.0000   0.0000   0.0000   0.0000   0.0000   0.0000   0.0000
        0.0000   0.0000   0.0000   0.0000   0.0000

     Estimated max dynamical RAM per process >     122.14 MB

     Estimated total dynamical RAM >       7.63 GB
     Generating pointlists ...
     new r_m :   0.0340 (alat units)  1.1299 (a.u.) for type    1
     new r_m :   0.0340 (alat units)  1.1299 (a.u.) for type    2
     new r_m :   0.0340 (alat units)  1.1300 (a.u.) for type    3
     new r_m :   0.0340 (alat units)  1.1300 (a.u.) for type    4
     new r_m :   0.0340 (alat units)  1.1300 (a.u.) for type    5

     Check: negative core charge=   -0.000006

     Initial potential from superposition of free atoms

     starting charge  390.98597, renormalised to  391.00000

     negative rho (up, down):  5.431E-02 5.945E-02
     Starting wfcs are  392 randomized atomic wfcs
     Checking if some PAW data can be deallocated... 

     total cpu time spent up to now is        7.9 secs

     Self-consistent Calculation

     iteration #  1     ecut=    40.00 Ry     beta= 0.70
     CG style diagonalization
     ethr =  1.00E-02,  avg # of iterations =  3.1

     negative rho (up, down):  3.277E-01 7.442E-03

     total cpu time spent up to now is       43.7 secs

     total energy              =   -1933.36181628 Ry
     Harris-Foulkes estimate   =   -1946.50178269 Ry
     estimated scf accuracy    <      20.02482762 Ry

     total magnetization       =     1.00 Bohr mag/cell
     absolute magnetization    =     1.83 Bohr mag/cell

     iteration #  2     ecut=    40.00 Ry     beta= 0.70
     CG style diagonalization
     ethr =  5.12E-03,  avg # of iterations =  4.0

     negative rho (up, down):  3.641E-01 4.813E-03

     total cpu time spent up to now is       78.9 secs

     total energy              =   -1937.50260118 Ry
     Harris-Foulkes estimate   =   -1943.88351526 Ry
     estimated scf accuracy    <      12.44566236 Ry

     total magnetization       =     1.00 Bohr mag/cell
     absolute magnetization    =     1.53 Bohr mag/cell

     iteration #  3     ecut=    40.00 Ry     beta= 0.70
     CG style diagonalization
     ethr =  3.18E-03,  avg # of iterations =  3.8

     negative rho (up, down):  4.184E-01 4.276E-03

     total cpu time spent up to now is      111.5 secs

     total energy              =   -1940.05756327 Ry
     Harris-Foulkes estimate   =   -1940.53188644 Ry
     estimated scf accuracy    <       0.81320763 Ry

     total magnetization       =     1.00 Bohr mag/cell
     absolute magnetization    =     1.27 Bohr mag/cell

     iteration #  4     ecut=    40.00 Ry     beta= 0.70
     CG style diagonalization
     c_bands:  1 eigenvalues not converged
     ethr =  2.08E-04,  avg # of iterations =  4.3

     negative rho (up, down):  4.613E-01 3.635E-03

     total cpu time spent up to now is      150.4 secs

     total energy              =   -1940.23485211 Ry
     Harris-Foulkes estimate   =   -1940.49548993 Ry
     estimated scf accuracy    <       0.68990953 Ry

     total magnetization       =     1.00 Bohr mag/cell
     absolute magnetization    =     1.36 Bohr mag/cell

     iteration #  5     ecut=    40.00 Ry     beta= 0.70
     CG style diagonalization
     c_bands:  1 eigenvalues not converged
     ethr =  1.76E-04,  avg # of iterations =  3.3

     negative rho (up, down):  4.729E-01 3.271E-03

     total cpu time spent up to now is      177.2 secs

     total energy              =   -1940.35442798 Ry
     Harris-Foulkes estimate   =   -1940.36990065 Ry
     estimated scf accuracy    <       0.05297497 Ry

     total magnetization       =     1.00 Bohr mag/cell
     absolute magnetization    =     1.21 Bohr mag/cell

     iteration #  6     ecut=    40.00 Ry     beta= 0.70
     CG style diagonalization
     c_bands:  5 eigenvalues not converged
     c_bands:  2 eigenvalues not converged
     ethr =  1.35E-05,  avg # of iterations =  4.1

     negative rho (up, down):  4.822E-01 3.373E-03

     total cpu time spent up to now is      213.2 secs

     total energy              =   -1940.35956229 Ry
     Harris-Foulkes estimate   =   -1940.36395715 Ry
     estimated scf accuracy    <       0.01688467 Ry

     total magnetization       =     1.00 Bohr mag/cell
     absolute magnetization    =     1.19 Bohr mag/cell

     iteration #  7     ecut=    40.00 Ry     beta= 0.70
     CG style diagonalization
     c_bands:  5 eigenvalues not converged
     c_bands:  5 eigenvalues not converged
     ethr =  4.32E-06,  avg # of iterations =  4.0

     negative rho (up, down):  4.866E-01 3.523E-03

     total cpu time spent up to now is      247.8 secs

     total energy              =   -1940.36273201 Ry
     Harris-Foulkes estimate   =   -1940.36427194 Ry
     estimated scf accuracy    <       0.00566855 Ry

     total magnetization       =     1.00 Bohr mag/cell
     absolute magnetization    =     1.17 Bohr mag/cell

     iteration #  8     ecut=    40.00 Ry     beta= 0.70
     CG style diagonalization
     c_bands:  3 eigenvalues not converged
     c_bands:  2 eigenvalues not converged
     ethr =  1.45E-06,  avg # of iterations =  9.2

     negative rho (up, down):  4.875E-01 3.571E-03

     total cpu time spent up to now is      324.7 secs

     total energy              =   -1940.36391910 Ry
     Harris-Foulkes estimate   =   -1940.36472805 Ry
     estimated scf accuracy    <       0.00281799 Ry

     total magnetization       =     1.00 Bohr mag/cell
     absolute magnetization    =     1.17 Bohr mag/cell

     iteration #  9     ecut=    40.00 Ry     beta= 0.70
     CG style diagonalization
     ethr =  7.21E-07,  avg # of iterations =  3.2

     negative rho (up, down):  4.875E-01 3.640E-03

     total cpu time spent up to now is      351.0 secs

     total energy              =   -1940.36432534 Ry
     Harris-Foulkes estimate   =   -1940.36437235 Ry
     estimated scf accuracy    <       0.00024076 Ry

     total magnetization       =     1.00 Bohr mag/cell
     absolute magnetization    =     1.17 Bohr mag/cell

     iteration # 10     ecut=    40.00 Ry     beta= 0.70
     CG style diagonalization
     ethr =  6.16E-08,  avg # of iterations =  3.7

     negative rho (up, down):  4.874E-01 3.667E-03

     total cpu time spent up to now is      382.9 secs

     total energy              =   -1940.36441303 Ry
     Harris-Foulkes estimate   =   -1940.36442277 Ry
     estimated scf accuracy    <       0.00008147 Ry

     total magnetization       =     1.00 Bohr mag/cell
     absolute magnetization    =     1.17 Bohr mag/cell

     iteration # 11     ecut=    40.00 Ry     beta= 0.70
     CG style diagonalization
     ethr =  2.08E-08,  avg # of iterations =  3.5

     negative rho (up, down):  4.874E-01 3.692E-03

     total cpu time spent up to now is      412.1 secs

     total energy              =   -1940.36443963 Ry
     Harris-Foulkes estimate   =   -1940.36444312 Ry
     estimated scf accuracy    <       0.00004115 Ry

     total magnetization       =     1.00 Bohr mag/cell
     absolute magnetization    =     1.17 Bohr mag/cell

     iteration # 12     ecut=    40.00 Ry     beta= 0.70
     CG style diagonalization
     ethr =  1.05E-08,  avg # of iterations =  3.2

     negative rho (up, down):  4.875E-01 3.698E-03

     total cpu time spent up to now is      438.5 secs

     total energy              =   -1940.36444730 Ry
     Harris-Foulkes estimate   =   -1940.36444852 Ry
     estimated scf accuracy    <       0.00001212 Ry

     total magnetization       =     1.00 Bohr mag/cell
     absolute magnetization    =     1.17 Bohr mag/cell

     iteration # 13     ecut=    40.00 Ry     beta= 0.70
     CG style diagonalization
     ethr =  3.10E-09,  avg # of iterations =  3.5

     negative rho (up, down):  4.874E-01 3.701E-03

     total cpu time spent up to now is      467.7 secs

     total energy              =   -1940.36445154 Ry
     Harris-Foulkes estimate   =   -1940.36445093 Ry
     estimated scf accuracy    <       0.00000187 Ry

     total magnetization       =     1.00 Bohr mag/cell
     absolute magnetization    =     1.17 Bohr mag/cell

     iteration # 14     ecut=    40.00 Ry     beta= 0.70
     CG style diagonalization
     ethr =  4.78E-10,  avg # of iterations =  3.9

     negative rho (up, down):  4.874E-01 3.697E-03
 
     Magnetic moment per site:
     atom:    1    charge:    0.8804    magn:   -0.0001    constr:    0.0000
     atom:    2    charge:    0.8815    magn:    0.0003    constr:    0.0000
     atom:    3    charge:    0.8806    magn:   -0.0005    constr:    0.0000
     atom:    4    charge:    0.8797    magn:    0.0003    constr:    0.0000
     atom:    5    charge:    0.8803    magn:    0.0001    constr:    0.0000
     atom:    6    charge:    0.8814    magn:    0.0001    constr:    0.0000
     atom:    7    charge:    0.8802    magn:    0.0004    constr:    0.0000
     atom:    8    charge:    0.8822    magn:   -0.0000    constr:    0.0000
     atom:    9    charge:    0.8825    magn:   -0.0002    constr:    0.0000
     atom:   10    charge:    0.8830    magn:   -0.0013    constr:    0.0000
     atom:   11    charge:    0.8822    magn:   -0.0004    constr:    0.0000
     atom:   12    charge:    0.8815    magn:   -0.0005    constr:    0.0000
     atom:   13    charge:    0.8820    magn:    0.0003    constr:    0.0000
     atom:   14    charge:    0.8814    magn:    0.0001    constr:    0.0000
     atom:   15    charge:    0.8824    magn:    0.0005    constr:    0.0000
     atom:   16    charge:    0.8833    magn:   -0.0003    constr:    0.0000
     atom:   17    charge:    0.9165    magn:   -0.0021    constr:    0.0000
     atom:   18    charge:    0.9181    magn:   -0.0051    constr:    0.0000
     atom:   19    charge:    0.8869    magn:   -0.0020    constr:    0.0000
     atom:   20    charge:    0.8815    magn:   -0.0005    constr:    0.0000
     atom:   21    charge:    0.8803    magn:    0.0001    constr:    0.0000
     atom:   22    charge:    0.8805    magn:    0.0001    constr:    0.0000
     atom:   23    charge:    0.8817    magn:   -0.0004    constr:    0.0000
     atom:   24    charge:    0.8830    magn:    0.0009    constr:    0.0000
     atom:   25    charge:    1.6825    magn:    0.0380    constr:    0.0000
     atom:   26    charge:    0.9181    magn:   -0.0051    constr:    0.0000
     atom:   27    charge:    0.8822    magn:   -0.0004    constr:    0.0000
     atom:   28    charge:    0.8797    magn:    0.0003    constr:    0.0000
     atom:   29    charge:    0.8805    magn:    0.0000    constr:    0.0000
     atom:   30    charge:    0.8815    magn:    0.0005    constr:    0.0000
     atom:   31    charge:    0.8818    magn:    0.0018    constr:    0.0000
     atom:   32    charge:    0.8830    magn:    0.0009    constr:    0.0000
     atom:   33    charge:    0.9165    magn:   -0.0020    constr:    0.0000
     atom:   34    charge:    0.8830    magn:   -0.0013    constr:    0.0000
     atom:   35    charge:    0.8806    magn:   -0.0005    constr:    0.0000
     atom:   36    charge:    0.8824    magn:   -0.0000    constr:    0.0000
     atom:   37    charge:    0.8818    magn:    0.0002    constr:    0.0000
     atom:   38    charge:    0.8815    magn:    0.0005    constr:    0.0000
     atom:   39    charge:    0.8817    magn:   -0.0004    constr:    0.0000
     atom:   40    charge:    0.8833    magn:   -0.0003    constr:    0.0000
     atom:   41    charge:    0.8825    magn:   -0.0001    constr:    0.0000
     atom:   42    charge:    0.8815    magn:    0.0003    constr:    0.0000
     atom:   43    charge:    0.8820    magn:    0.0002    constr:    0.0000
     atom:   44    charge:    0.8825    magn:   -0.0001    constr:    0.0000
     atom:   45    charge:    0.8805    magn:    0.0000    constr:    0.0000
     atom:   46    charge:    0.8805    magn:    0.0001    constr:    0.0000
     atom:   47    charge:    0.8824    magn:    0.0005    constr:    0.0000
     atom:   48    charge:    0.8822    magn:   -0.0000    constr:    0.0000
     atom:   49    charge:    0.8804    magn:   -0.0001    constr:    0.0000
     atom:   50    charge:    2.8682    magn:    0.0010    constr:    0.0000
     atom:   51    charge:    2.8715    magn:    0.0005    constr:    0.0000
     atom:   52    charge:    2.8722    magn:    0.0064    constr:    0.0000
     atom:   53    charge:    2.8677    magn:    0.0066    constr:    0.0000
     atom:   54    charge:    2.8685    magn:   -0.0001    constr:    0.0000
     atom:   55    charge:    2.8730    magn:    0.0001    constr:    0.0000
     atom:   56    charge:    2.8714    magn:    0.0001    constr:    0.0000
     atom:   57    charge:    2.8690    magn:   -0.0001    constr:    0.0000
     atom:   58    charge:    2.8684    magn:    0.0055    constr:    0.0000
     atom:   59    charge:    2.8681    magn:    0.0333    constr:    0.0000
     atom:   60    charge:    2.8694    magn:    0.0018    constr:    0.0000
     atom:   61    charge:    2.8681    magn:    0.0120    constr:    0.0000
     atom:   62    charge:    2.8706    magn:    0.0066    constr:    0.0000
     atom:   63    charge:    2.8730    magn:    0.0001    constr:    0.0000
     atom:   64    charge:    2.8674    magn:    0.0002    constr:    0.0000
     atom:   65    charge:    2.8693    magn:    0.0051    constr:    0.0000
     atom:   66    charge:    2.8650    magn:    0.0009    constr:    0.0000
     atom:   67    charge:    1.8204    magn:    0.0362    constr:    0.0000
     atom:   68    charge:    2.8556    magn:    0.0913    constr:    0.0000
     atom:   69    charge:    2.8680    magn:    0.0120    constr:    0.0000
     atom:   70    charge:    2.8685    magn:   -0.0001    constr:    0.0000
     atom:   71    charge:    2.8683    magn:    0.0005    constr:    0.0000
     atom:   72    charge:    2.8694    magn:   -0.0001    constr:    0.0000
     atom:   73    charge:    2.8681    magn:    0.0100    constr:    0.0000
     atom:   74    charge:    2.8313    magn:    0.0920    constr:    0.0000
     atom:   75    charge:    1.8204    magn:    0.0361    constr:    0.0000
     atom:   76    charge:    2.8694    magn:    0.0016    constr:    0.0000
     atom:   77    charge:    2.8678    magn:    0.0065    constr:    0.0000
     atom:   78    charge:    2.8674    magn:    0.0000    constr:    0.0000
     atom:   79    charge:    2.8694    magn:   -0.0000    constr:    0.0000
     atom:   80    charge:    2.8747    magn:    0.0046    constr:    0.0000
     atom:   81    charge:    2.8681    magn:    0.0101    constr:    0.0000
     atom:   82    charge:    2.8649    magn:    0.0008    constr:    0.0000
     atom:   83    charge:    2.8682    magn:    0.0331    constr:    0.0000
     atom:   84    charge:    2.8721    magn:    0.0064    constr:    0.0000
     atom:   85    charge:    2.8689    magn:    0.0011    constr:    0.0000
     atom:   86    charge:    2.8699    magn:    0.0004    constr:    0.0000
     atom:   87    charge:    2.8694    magn:   -0.0000    constr:    0.0000
     atom:   88    charge:    2.8694    magn:   -0.0001    constr:    0.0000
     atom:   89    charge:    2.8693    magn:    0.0051    constr:    0.0000
     atom:   90    charge:    2.8684    magn:    0.0055    constr:    0.0000
     atom:   91    charge:    2.8715    magn:    0.0004    constr:    0.0000
     atom:   92    charge:    2.8682    magn:    0.0006    constr:    0.0000
     atom:   93    charge:    2.8689    magn:    0.0011    constr:    0.0000
     atom:   94    charge:    2.8674    magn:    0.0001    constr:    0.0000
     atom:   95    charge:    2.8683    magn:    0.0006    constr:    0.0000
     atom:   96    charge:    2.8674    magn:    0.0002    constr:    0.0000
     atom:   97    charge:    2.8690    magn:   -0.0001    constr:    0.0000
     atom:   98    charge:    2.8682    magn:    0.0009    constr:    0.0000

     total cpu time spent up to now is      500.9 secs

     End of self-consistent calculation

 ------ SPIN UP ------------


          k = 0.0000 0.0000 0.0000 ( 77079 PWs)   bands (ev):

   -21.9084 -21.6570 -21.4043 -21.4030 -21.3688 -21.2936 -21.2752 -20.8879
   -20.6599 -20.6591 -20.6017 -20.5532 -20.5491 -20.4157 -20.2970 -20.2860
   -20.2786 -20.1342 -20.0796 -19.5996 -19.4498 -19.4204 -19.3847 -19.3797
   -19.3722 -19.3607 -19.3374 -19.3197 -19.2698 -19.1917 -19.1644 -19.0328
   -18.9771 -18.9665 -18.9377 -18.7610 -18.7565 -18.5579 -18.5322 -18.5288
   -18.4994 -18.4534 -18.4078 -18.3783 -18.3669 -18.3025 -18.2896 -16.8686
   -14.8044 -13.2165 -12.7912 -12.7834 -12.7455 -12.7191 -12.7095 -12.6294
   -12.5819 -12.5344 -12.5193 -12.4748 -12.3991 -12.1583 -12.0735 -12.0650
   -12.0247 -11.9815 -11.9435 -11.5640 -11.4270 -11.4039 -11.3976 -11.3902
   -11.3597 -11.3572 -11.3178 -11.3064 -11.2852 -11.0766 -11.0145 -10.8481
   -10.7232 -10.7024 -10.6740 -10.6283 -10.5058 -10.0495 -10.0067 -10.0036
    -9.9303  -9.8796  -9.8030  -9.4044  -9.3624  -9.3226  -9.2953  -9.2766
    -9.2692  -9.1870  -9.0433  -9.0030  -8.9452  -8.8952  -8.8935  -8.8806
    -8.8676  -8.8664  -8.8586  -8.8392  -8.8376  -8.8309  -8.8181  -8.8167
    -8.8064  -8.7865  -8.7474  -8.7242  -8.7186  -8.7122  -8.6457  -8.6447
    -8.5006  -8.4911  -8.2180  -8.1499  -8.1498  -8.0614  -8.0417  -8.0040
    -7.8348  -7.8306  -7.8158  -7.7735  -7.7372  -7.7182  -7.5573  -7.5242
    -7.4821  -7.4760  -7.4631  -7.4524  -7.4399  -7.3882  -7.3834  -7.3490
    -7.3298  -7.3256  -7.3120  -7.2363  -7.1995  -7.1923  -7.1610  -7.0474
    -7.0098  -6.9612  -6.8701  -6.7956  -6.6378  -6.5391  -6.2950  -6.1846
    -6.1774  -6.1459  -6.1130  -6.0883  -6.0550  -6.0492  -6.0370  -6.0259
    -6.0209  -6.0146  -6.0002  -5.9367  -5.9045  -5.7983  -5.7704  -5.6920
    -5.5214  -5.4490  -5.4446  -5.4421  -5.2992  -5.2367  -5.0058  -4.9897
    -4.7997  -4.7942  -4.7587  -4.7374  -4.6641  -4.6623  -4.5598  -4.5226
    -4.4956  -4.4708  -4.4262  -3.1605  -0.0660   0.1810   0.6846   0.6926
     0.7064   0.7322   0.7549   0.7570   0.7793   0.7969   0.8039   0.8082
     0.8201   0.8345   0.8636   0.8671   0.8783   0.9287   0.9419   0.9569
     1.0464   1.1667   1.2161   1.2417   1.2810   1.3095   1.3185   1.3298
     1.3407   1.3593   1.3642   1.4047   1.4077   1.4276   1.4326   1.4390
     1.4458   1.4620   1.4862   1.8821   2.0724   2.0981   2.1033   2.1214
     2.1256   2.1513   2.1545   2.2103   2.2924

 ------ SPIN DOWN ----------


          k = 0.0000 0.0000 0.0000 ( 77079 PWs)   bands (ev):

   -21.8364 -21.6161 -21.4005 -21.3979 -21.3622 -21.2641 -21.2616 -20.8503
   -20.6519 -20.6454 -20.5968 -20.5413 -20.5372 -20.4038 -20.2856 -20.2795
   -20.2524 -20.1001 -20.0697 -19.5615 -19.4410 -19.4139 -19.3786 -19.3731
   -19.3672 -19.3535 -19.3205 -19.2908 -19.2658 -19.1721 -19.1506 -19.0225
   -18.9656 -18.9603 -18.9149 -18.7538 -18.7409 -18.5487 -18.5228 -18.5116
   -18.4873 -18.4455 -18.3999 -18.3662 -18.3611 -18.2862 -18.2580 -16.7066
   -14.7162 -13.1812 -12.7842 -12.7795 -12.7428 -12.7171 -12.7076 -12.6251
   -12.5770 -12.5311 -12.5148 -12.4633 -12.3922 -12.1513 -12.0680 -12.0597
   -12.0187 -11.9762 -11.9340 -11.5520 -11.4150 -11.4011 -11.3869 -11.3845
   -11.3574 -11.3495 -11.3114 -11.2978 -11.2759 -11.0586 -10.9995 -10.8408
   -10.7201 -10.7010 -10.6679 -10.6213 -10.4996 -10.0400  -9.9966  -9.9941
    -9.9208  -9.8666  -9.7923  -9.3963  -9.3252  -9.3144  -9.2909  -9.2684
    -9.2648  -9.1839  -9.0324  -8.9312  -8.9207  -8.8912  -8.8823  -8.8779
    -8.8631  -8.8625  -8.8513  -8.8339  -8.8319  -8.8202  -8.8125  -8.8117
    -8.7923  -8.7753  -8.7441  -8.7169  -8.6970  -8.6362  -8.6351  -8.6257
    -8.4957  -8.4738  -8.2152  -8.1474  -8.1459  -8.0466  -8.0306  -7.9064
    -7.8151  -7.8049  -7.8040  -7.7645  -7.7011  -7.6934  -7.5499  -7.5161
    -7.4742  -7.4738  -7.4506  -7.4388  -7.4124  -7.3814  -7.3784  -7.3184
    -7.3177  -7.3042  -7.2853  -7.1892  -7.1813  -7.1678  -7.1421  -7.0337
    -7.0073  -6.9572  -6.8555  -6.7805  -6.6268  -6.5321  -6.1887  -6.1798
    -6.1702  -6.1398  -6.0952  -6.0739  -6.0411  -6.0332  -6.0272  -6.0107
    -5.9865  -5.9863  -5.9468  -5.9265  -5.8421  -5.7722  -5.7623  -5.6851
    -5.4915  -5.4323  -5.4321  -5.3922  -5.2404  -5.2090  -4.9741  -4.9559
    -4.7699  -4.7569  -4.7358  -4.7086  -4.6440  -4.6069  -4.5400  -4.5118
    -4.4633  -4.4414  -4.1528  -2.9901   0.1051   0.1826   0.6965   0.7070
     0.7073   0.7382   0.7612   0.7639   0.7806   0.7972   0.8042   0.8147
     0.8209   0.8359   0.8719   0.8785   0.8794   0.9388   0.9494   0.9622
     1.0516   1.1868   1.2281   1.2538   1.2854   1.3098   1.3184   1.3302
     1.3420   1.3656   1.3686   1.4117   1.4164   1.4279   1.4326   1.4392
     1.4463   1.4624   1.4892   1.8840   2.1001   2.1038   2.1238   2.1258
     2.1262   2.1526   2.1591   2.2125   2.3025

     highest occupied, lowest unoccupied level (ev):    -3.1605   -4.1528

!    total energy              =   -1940.36445225 Ry
     Harris-Foulkes estimate   =   -1940.36445244 Ry
     estimated scf accuracy    <       0.00000062 Ry

     total all-electron energy =     -7770.188929 Ry

     The total energy is the sum of the following terms:

     one-electron contribution =  -10680.73105857 Ry
     hartree contribution      =    5426.20583898 Ry
     xc contribution           =    -431.00204206 Ry
     ewald contribution        =    4388.62168141 Ry
     DFT-D3 Dispersion         =      -0.27079554 Ry
     one-center paw contrib.   =    -643.18807646 Ry

     total magnetization       =     1.00 Bohr mag/cell
     absolute magnetization    =     1.17 Bohr mag/cell

     convergence has been achieved in  14 iterations

     negative rho (up, down):  4.874E-01 3.697E-03

     Forces acting on atoms (cartesian axes, Ry/au):

     atom    1 type  1   force =    -0.00092880   -0.00101191    0.00000000
     atom    2 type  1   force =     0.00184543    0.00035339    0.00000000
     atom    3 type  1   force =     0.00177077    0.00148405    0.00000000
     atom    4 type  1   force =    -0.00078670   -0.00176783    0.00000000
     atom    5 type  1   force =     0.00268685   -0.00230433    0.00000000
     atom    6 type  1   force =    -0.00014770    0.00166017    0.00000000
     atom    7 type  1   force =    -0.00258039    0.00148338    0.00000000
     atom    8 type  1   force =    -0.00438140   -0.00152034    0.00000000
     atom    9 type  1   force =    -0.00465847    0.00161561    0.00000000
     atom   10 type  1   force =     0.00243481    0.01277770    0.00000000
     atom   11 type  1   force =     0.00854514   -0.01494452    0.00000000
     atom   12 type  1   force =    -0.00295640   -0.00234446    0.00000000
     atom   13 type  1   force =    -0.00219669    0.00126447    0.00000000
     atom   14 type  1   force =    -0.00151557   -0.00070293    0.00000000
     atom   15 type  1   force =     0.00140671   -0.00454776    0.00000000
     atom   16 type  1   force =     0.00185022    0.00846934    0.00000000
     atom   17 type  1   force =     0.00406764   -0.05094772    0.00000000
     atom   18 type  1   force =    -0.03857478    0.02704382    0.00000000
     atom   19 type  1   force =    -0.00832602    0.00478906    0.00000000
     atom   20 type  1   force =     0.00053207    0.00374582    0.00000000
     atom   21 type  1   force =     0.00334185   -0.00117347    0.00000000
     atom   22 type  1   force =     0.00325488   -0.00467782    0.00000000
     atom   23 type  1   force =    -0.00130717   -0.00702527    0.00000000
     atom   24 type  1   force =    -0.02682809   -0.04206307    0.00000000
     atom   25 type  4   force =     0.00734695   -0.00425316    0.00000000
     atom   26 type  1   force =    -0.04268953    0.01987787    0.00000000
     atom   27 type  1   force =     0.01723243    0.00009358    0.00000000
     atom   28 type  1   force =     0.00114831    0.00155325    0.00000000
     atom   29 type  1   force =    -0.00110943   -0.00449691    0.00000000
     atom   30 type  1   force =     0.00156225   -0.00624658    0.00000000
     atom   31 type  1   force =     0.00784367   -0.00452772    0.00000000
     atom   32 type  1   force =     0.02301603    0.04425172    0.00000000
     atom   33 type  1   force =     0.04613773    0.02197095    0.00000000
     atom   34 type  1   force =    -0.00982839   -0.00851479    0.00000000
     atom   35 type  1   force =    -0.00041860   -0.00227577    0.00000000
     atom   36 type  1   force =    -0.00111210   -0.00263961    0.00000000
     atom   37 type  1   force =     0.00003203   -0.00001761    0.00000000
     atom   38 type  1   force =     0.00619126    0.00177082    0.00000000
     atom   39 type  1   force =     0.00543135    0.00465415    0.00000000
     atom   40 type  1   force =    -0.00639203   -0.00583165    0.00000000
     atom   41 type  1   force =    -0.00374319    0.00321792    0.00000000
     atom   42 type  1   force =     0.00063156   -0.00176422    0.00000000
     atom   43 type  1   force =     0.00389207   -0.00225390    0.00000000
     atom   44 type  1   force =     0.00172323    0.00228782    0.00000000
     atom   45 type  1   force =     0.00333738    0.00321456    0.00000000
     atom   46 type  1   force =     0.00568207   -0.00048122    0.00000000
     atom   47 type  1   force =     0.00463786    0.00105091    0.00000000
     atom   48 type  1   force =    -0.00087329    0.00455932    0.00000000
     atom   49 type  1   force =     0.00041190    0.00130490    0.00000000
     atom   50 type  2   force =     0.00083151   -0.00033255    0.00000000
     atom   51 type  2   force =    -0.00015167   -0.00376946    0.00000000
     atom   52 type  2   force =    -0.00468445   -0.00220006    0.00000000
     atom   53 type  2   force =    -0.00442990    0.00139450    0.00000000
     atom   54 type  2   force =    -0.00123371    0.00068793    0.00000000
     atom   55 type  2   force =     0.00063727   -0.00025197    0.00000000
     atom   56 type  2   force =    -0.00001934    0.00001620    0.00000000
     atom   57 type  2   force =     0.00101295   -0.00020445    0.00000000
     atom   58 type  2   force =     0.00021206   -0.00237612    0.00000000
     atom   59 type  2   force =    -0.00635672   -0.02100633    0.00000000
     atom   60 type  2   force =    -0.02972440   -0.00117209    0.00000000
     atom   61 type  2   force =    -0.00114785    0.00649436    0.00000000
     atom   62 type  2   force =     0.00152445   -0.00088309    0.00000000
     atom   63 type  2   force =     0.00053813   -0.00042212    0.00000000
     atom   64 type  2   force =     0.00014478    0.00132079    0.00000000
     atom   65 type  2   force =     0.00388311    0.00140152    0.00000000
     atom   66 type  2   force =     0.02733524   -0.01931401    0.00000000
     atom   67 type  3   force =     0.10827558    0.03423997    0.00000000
     atom   68 type  2   force =    -0.03000635    0.01731474    0.00000000
     atom   69 type  2   force =    -0.00619562   -0.00225923    0.00000000
     atom   70 type  2   force =    -0.00121025    0.00072932    0.00000000
     atom   71 type  2   force =    -0.00116623    0.00108492    0.00000000
     atom   72 type  2   force =    -0.00054472    0.00332934    0.00000000
     atom   73 type  2   force =    -0.00370412    0.01319565    0.00000000
     atom   74 type  2   force =    -0.08279276    0.04779886    0.00000000
     atom   75 type  5   force =     0.02447784   -0.11086432    0.00000000
     atom   76 type  2   force =    -0.01385217    0.02632404    0.00000000
     atom   77 type  2   force =    -0.00343548    0.00314137    0.00000000
     atom   78 type  2   force =    -0.00165851    0.00224329    0.00000000
     atom   79 type  2   force =    -0.00245112    0.00204022    0.00000000
     atom   80 type  2   force =    -0.00684590    0.00395006    0.00000000
     atom   81 type  2   force =    -0.01328771   -0.00339296    0.00000000
     atom   82 type  2   force =     0.03037719   -0.01402840    0.00000000
     atom   83 type  2   force =     0.01500516    0.01599870    0.00000000
     atom   84 type  2   force =    -0.00045026    0.00515543    0.00000000
     atom   85 type  2   force =    -0.00031249    0.00038642    0.00000000
     atom   86 type  2   force =    -0.00118127    0.00068427    0.00000000
     atom   87 type  2   force =    -0.00298827    0.00110204    0.00000000
     atom   88 type  2   force =    -0.00315362   -0.00119590    0.00000000
     atom   89 type  2   force =     0.00073464   -0.00407421    0.00000000
     atom   90 type  2   force =     0.00216872    0.00100660    0.00000000
     atom   91 type  2   force =     0.00319931    0.00202919    0.00000000
     atom   92 type  2   force =     0.00042179   -0.00023794    0.00000000
     atom   93 type  2   force =    -0.00047973    0.00008728    0.00000000
     atom   94 type  2   force =    -0.00276435    0.00030965    0.00000000
     atom   95 type  2   force =    -0.00152584    0.00046179    0.00000000
     atom   96 type  2   force =    -0.00106907   -0.00078909    0.00000000
     atom   97 type  2   force =     0.00069298   -0.00077144    0.00000000
     atom   98 type  2   force =     0.00071146   -0.00054276    0.00000000

     Total force =     0.241685     Total SCF correction =     0.000980


     Computing stress (Cartesian axis) and pressure


     negative rho (up, down):  4.874E-01 3.697E-03
          total   stress  (Ry/bohr**3)                   (kbar)     P=    1.20
   0.00001246   0.00000266   0.00000000          1.83      0.39      0.00
   0.00000266   0.00001554   0.00000000          0.39      2.29      0.00
   0.00000000   0.00000000  -0.00000360          0.00      0.00     -0.53


     BFGS Geometry Optimization

     number of scf cycles    =   1
     number of bfgs steps    =   0

     enthalpy new            =   -1940.3644522513 Ry

     new trust radius        =       0.1135604525 bohr
     new conv_thr            =       0.0000010000 Ry

     new unit-cell volume =  36129.86754 a.u.^3 (  5353.89393 Ang^3 )
     density =      0.36412 g/cm^3

CELL_PARAMETERS (alat= 33.23461096)
   0.999645883   0.000066505   0.000000000
  -0.499765346   0.865751952   0.000000000
   0.000000000   0.000000000   1.137203616

ATOMIC_POSITIONS (crystal)
B        0.047577667   0.095211265   0.500000000
B        0.047680583   0.238110830   0.500000000
B        0.047700089   0.380997218   0.500000000
B        0.047569828   0.523751162   0.500000000
B        0.047661816   0.666595239   0.500000000
B        0.047643288   0.809578050   0.500000000
B        0.047571316   0.952428350   0.500000000
B        0.190328425   0.095190530   0.500000000
B        0.190367491   0.238154714   0.500000000
B        0.190771239   0.381395857   0.500000000
B        0.190482006   0.523293424   0.500000000
B        0.190354738   0.666590998   0.500000000
B        0.190431648   0.809568155   0.500000000
B        0.190421817   0.952356686   0.500000000
B        0.333294785   0.095083581   0.500000000
B        0.333534421   0.238384246   0.500000000
B        0.332561468   0.379174320   0.500000000
B        0.332636155   0.524753235   0.500000000
B        0.333165561   0.666833502   0.500000000
B        0.333408628   0.809645723   0.500000000
B        0.333404867   0.952338227   0.500000000
B        0.476204216   0.095082640   0.500000000
B        0.476025712   0.237849349   0.500000000
B        0.474648556   0.379479848   0.500000000
C2       0.476334652   0.523664754   0.500000000
B        0.475247201   0.667363603   0.500000000
B        0.476707480   0.809518745   0.500000000
B        0.476248952   0.952429756   0.500000000
B        0.618946167   0.095088930   0.500000000
B        0.618989060   0.237883045   0.500000000
B        0.619208069   0.380791974   0.500000000
B        0.620519987   0.525350971   0.500000000
B        0.620825479   0.667439219   0.500000000
B        0.618604445   0.809228159   0.500000000
B        0.619002213   0.952299903   0.500000000
B        0.761830838   0.095149921   0.500000000
B        0.761907061   0.238092985   0.500000000
B        0.762116977   0.381010956   0.500000000
B        0.762150842   0.523974617   0.500000000
B        0.761616375   0.666465765   0.500000000
B        0.761844691   0.809632209   0.500000000
B        0.761889803   0.952319788   0.500000000
B        0.904834618   0.095165027   0.500000000
B        0.904849962   0.238169333   0.500000000
B        0.904911092   0.381054018   0.500000000
B        0.904917443   0.523795739   0.500000000
B        0.904916217   0.666705051   0.500000000
B        0.904809575   0.809671740   0.500000000
B        0.904788640   0.952422144   0.500000000
N        0.095263104   0.047610362   0.500000000
N        0.095171599   0.190352331   0.500000000
N        0.095061058   0.333255497   0.500000000
N        0.095133772   0.476236969   0.500000000
N        0.095217724   0.619078343   0.500000000
N        0.095255156   0.761899601   0.500000000
N        0.095241391   0.904758871   0.500000000
N        0.238124716   0.047612173   0.500000000
N        0.238062851   0.190395879   0.500000000
N        0.237535080   0.332601659   0.500000000
N        0.237178881   0.476147713   0.500000000
N        0.238177015   0.619275630   0.500000000
N        0.238124781   0.761875066   0.500000000
N        0.238100504   0.904744976   0.500000000
N        0.380975138   0.047666512   0.500000000
N        0.381093035   0.190524604   0.500000000
N        0.381435114   0.332655736   0.500000000
C1       0.384800871   0.477378909   0.500000000
N        0.380347685   0.619651822   0.500000000
N        0.380724342   0.761822772   0.500000000
N        0.380921813   0.904782445   0.500000000
N        0.523795520   0.047660268   0.500000000
N        0.523853278   0.190597485   0.500000000
N        0.523929662   0.333787843   0.500000000
N        0.522149867   0.477850052   0.500000000
C3       0.522621308   0.615200000   0.500000000
N        0.523852064   0.762820977   0.500000000
N        0.523762683   0.904866305   0.500000000
N        0.666661833   0.047698585   0.500000000
N        0.666632596   0.190552667   0.500000000
N        0.666529542   0.333470332   0.500000000
N        0.666211868   0.476070234   0.500000000
N        0.667343541   0.618564455   0.500000000
N        0.667397919   0.762464589   0.500000000
N        0.666744076   0.904938891   0.500000000
N        0.809518818   0.047632716   0.500000000
N        0.809500451   0.190499667   0.500000000
N        0.809447449   0.333367384   0.500000000
N        0.809402524   0.476146619   0.500000000
N        0.809475418   0.618906597   0.500000000
N        0.809604306   0.761937225   0.500000000
N        0.809648219   0.904828857   0.500000000
N        0.952386639   0.047613651   0.500000000
N        0.952367792   0.190481525   0.500000000
N        0.952301559   0.333337993   0.500000000
N        0.952339537   0.476204281   0.500000000
N        0.952333502   0.619024747   0.500000000
N        0.952388174   0.761875408   0.500000000
N        0.952390062   0.904737281   0.500000000



     Writing output data file C2Cn.save/
     NEW-OLD atomic charge density approx. for the potential
     NEW k-points:
   0.0000000   0.0000000   0.0000000   1.0000000
   0.0000000   0.0000000   0.0000000   1.0000000

     Check: negative core charge=   -0.000006

     negative rho (up, down):  4.872E-01 1.179E-03
     extrapolated charge  391.27355, renormalised to  391.00000

     total cpu time spent up to now is      520.5 secs

     Self-consistent Calculation

     iteration #  1     ecut=    40.00 Ry     beta= 0.70
     CG style diagonalization
     c_bands:  1 eigenvalues not converged
     c_bands:  1 eigenvalues not converged
     ethr =  1.00E-06,  avg # of iterations = 21.1

     negative rho (up, down):  4.846E-01 3.968E-03

     total cpu time spent up to now is      739.4 secs

     total energy              =   -1940.36446340 Ry
     Harris-Foulkes estimate   =   -1933.15670355 Ry
     estimated scf accuracy    <       0.03665992 Ry

     total magnetization       =     1.00 Bohr mag/cell
     absolute magnetization    =     1.17 Bohr mag/cell

     iteration #  2     ecut=    40.00 Ry     beta= 0.70
     CG style diagonalization
     c_bands:  1 eigenvalues not converged
     c_bands:  1 eigenvalues not converged
     ethr =  9.38E-06,  avg # of iterations =  4.3

     negative rho (up, down):  4.852E-01 3.806E-03

     total cpu time spent up to now is      777.2 secs

     total energy              =   -1940.37097467 Ry
     Harris-Foulkes estimate   =   -1940.39360439 Ry
     estimated scf accuracy    <       0.04813810 Ry

     total magnetization       =     1.00 Bohr mag/cell
     absolute magnetization    =     1.17 Bohr mag/cell

     iteration #  3     ecut=    40.00 Ry     beta= 0.70
     CG style diagonalization
     ethr =  9.38E-06,  avg # of iterations =  3.4

     negative rho (up, down):  4.857E-01 3.842E-03

     total cpu time spent up to now is      805.3 secs

     total energy              =   -1940.38007287 Ry
     Harris-Foulkes estimate   =   -1940.38194398 Ry
     estimated scf accuracy    <       0.00410021 Ry

     total magnetization       =     1.00 Bohr mag/cell
     absolute magnetization    =     1.17 Bohr mag/cell

     iteration #  4     ecut=    40.00 Ry     beta= 0.70
     CG style diagonalization
     ethr =  1.05E-06,  avg # of iterations =  3.5

     negative rho (up, down):  4.860E-01 3.889E-03

     total cpu time spent up to now is      834.5 secs

     total energy              =   -1940.38110169 Ry
     Harris-Foulkes estimate   =   -1940.38139624 Ry
     estimated scf accuracy    <       0.00074586 Ry

     total magnetization       =     1.00 Bohr mag/cell
     absolute magnetization    =     1.17 Bohr mag/cell

     iteration #  5     ecut=    40.00 Ry     beta= 0.70
     CG style diagonalization
     ethr =  1.91E-07,  avg # of iterations =  3.4

     negative rho (up, down):  4.861E-01 3.848E-03

     total cpu time spent up to now is      863.2 secs

     total energy              =   -1940.38124704 Ry
     Harris-Foulkes estimate   =   -1940.38140841 Ry
     estimated scf accuracy    <       0.00050072 Ry

     total magnetization       =     1.00 Bohr mag/cell
     absolute magnetization    =     1.17 Bohr mag/cell

     iteration #  6     ecut=    40.00 Ry     beta= 0.70
     CG style diagonalization
     ethr =  1.28E-07,  avg # of iterations =  3.1

     negative rho (up, down):  4.861E-01 3.903E-03

     total cpu time spent up to now is      888.2 secs

     total energy              =   -1940.38131612 Ry
     Harris-Foulkes estimate   =   -1940.38132824 Ry
     estimated scf accuracy    <       0.00003131 Ry

     total magnetization       =     1.00 Bohr mag/cell
     absolute magnetization    =     1.17 Bohr mag/cell

     iteration #  7     ecut=    40.00 Ry     beta= 0.70
     CG style diagonalization
     ethr =  8.01E-09,  avg # of iterations =  3.6

     negative rho (up, down):  4.861E-01 3.920E-03

     total cpu time spent up to now is      918.6 secs

     total energy              =   -1940.38132597 Ry
     Harris-Foulkes estimate   =   -1940.38132690 Ry
     estimated scf accuracy    <       0.00000889 Ry

     total magnetization       =     1.00 Bohr mag/cell
     absolute magnetization    =     1.17 Bohr mag/cell

     iteration #  8     ecut=    40.00 Ry     beta= 0.70
     CG style diagonalization
     ethr =  2.27E-09,  avg # of iterations =  3.4

     negative rho (up, down):  4.861E-01 3.926E-03

     total cpu time spent up to now is      947.1 secs

     total energy              =   -1940.38132796 Ry
     Harris-Foulkes estimate   =   -1940.38132813 Ry
     estimated scf accuracy    <       0.00000150 Ry

     total magnetization       =     1.00 Bohr mag/cell
     absolute magnetization    =     1.17 Bohr mag/cell

     iteration #  9     ecut=    40.00 Ry     beta= 0.70
     CG style diagonalization
     ethr =  3.83E-10,  avg # of iterations =  3.5

     negative rho (up, down):  4.861E-01 3.925E-03
 
     Magnetic moment per site:
     atom:    1    charge:    0.8810    magn:   -0.0000    constr:    0.0000
     atom:    2    charge:    0.8814    magn:    0.0003    constr:    0.0000
     atom:    3    charge:    0.8806    magn:   -0.0004    constr:    0.0000
     atom:    4    charge:    0.8802    magn:    0.0003    constr:    0.0000
     atom:    5    charge:    0.8804    magn:    0.0000    constr:    0.0000
     atom:    6    charge:    0.8813    magn:    0.0001    constr:    0.0000
     atom:    7    charge:    0.8803    magn:    0.0003    constr:    0.0000
     atom:    8    charge:    0.8823    magn:    0.0000    constr:    0.0000
     atom:    9    charge:    0.8867    magn:   -0.0000    constr:    0.0000
     atom:   10    charge:    0.8796    magn:   -0.0010    constr:    0.0000
     atom:   11    charge:    0.8857    magn:   -0.0004    constr:    0.0000
     atom:   12    charge:    0.8824    magn:   -0.0004    constr:    0.0000
     atom:   13    charge:    0.8819    magn:    0.0002    constr:    0.0000
     atom:   14    charge:    0.8813    magn:    0.0001    constr:    0.0000
     atom:   15    charge:    0.8822    magn:    0.0004    constr:    0.0000
     atom:   16    charge:    0.8875    magn:   -0.0004    constr:    0.0000
     atom:   17    charge:    0.8983    magn:   -0.0018    constr:    0.0000
     atom:   18    charge:    0.8912    magn:   -0.0052    constr:    0.0000
     atom:   19    charge:    0.8970    magn:   -0.0017    constr:    0.0000
     atom:   20    charge:    0.8824    magn:   -0.0004    constr:    0.0000
     atom:   21    charge:    0.8804    magn:    0.0000    constr:    0.0000
     atom:   22    charge:    0.8802    magn:    0.0001    constr:    0.0000
     atom:   23    charge:    0.8805    magn:   -0.0005    constr:    0.0000
     atom:   24    charge:    0.8762    magn:    0.0005    constr:    0.0000
     atom:   25    charge:    1.7662    magn:    0.0325    constr:    0.0000
     atom:   26    charge:    0.8912    magn:   -0.0052    constr:    0.0000
     atom:   27    charge:    0.8857    magn:   -0.0004    constr:    0.0000
     atom:   28    charge:    0.8802    magn:    0.0003    constr:    0.0000
     atom:   29    charge:    0.8805    magn:    0.0000    constr:    0.0000
     atom:   30    charge:    0.8816    magn:    0.0005    constr:    0.0000
     atom:   31    charge:    0.8843    magn:    0.0018    constr:    0.0000
     atom:   32    charge:    0.8762    magn:    0.0005    constr:    0.0000
     atom:   33    charge:    0.8983    magn:   -0.0018    constr:    0.0000
     atom:   34    charge:    0.8796    magn:   -0.0009    constr:    0.0000
     atom:   35    charge:    0.8806    magn:   -0.0004    constr:    0.0000
     atom:   36    charge:    0.8822    magn:    0.0000    constr:    0.0000
     atom:   37    charge:    0.8815    magn:    0.0003    constr:    0.0000
     atom:   38    charge:    0.8816    magn:    0.0005    constr:    0.0000
     atom:   39    charge:    0.8805    magn:   -0.0005    constr:    0.0000
     atom:   40    charge:    0.8875    magn:   -0.0004    constr:    0.0000
     atom:   41    charge:    0.8866    magn:   -0.0000    constr:    0.0000
     atom:   42    charge:    0.8814    magn:    0.0003    constr:    0.0000
     atom:   43    charge:    0.8818    magn:    0.0002    constr:    0.0000
     atom:   44    charge:    0.8822    magn:    0.0000    constr:    0.0000
     atom:   45    charge:    0.8805    magn:    0.0000    constr:    0.0000
     atom:   46    charge:    0.8802    magn:    0.0001    constr:    0.0000
     atom:   47    charge:    0.8822    magn:    0.0004    constr:    0.0000
     atom:   48    charge:    0.8823    magn:    0.0000    constr:    0.0000
     atom:   49    charge:    0.8810    magn:   -0.0000    constr:    0.0000
     atom:   50    charge:    2.8702    magn:    0.0005    constr:    0.0000
     atom:   51    charge:    2.8730    magn:    0.0004    constr:    0.0000
     atom:   52    charge:    2.8715    magn:    0.0049    constr:    0.0000
     atom:   53    charge:    2.8692    magn:    0.0038    constr:    0.0000
     atom:   54    charge:    2.8703    magn:    0.0000    constr:    0.0000
     atom:   55    charge:    2.8732    magn:    0.0002    constr:    0.0000
     atom:   56    charge:    2.8722    magn:   -0.0001    constr:    0.0000
     atom:   57    charge:    2.8690    magn:   -0.0001    constr:    0.0000
     atom:   58    charge:    2.8669    magn:    0.0035    constr:    0.0000
     atom:   59    charge:    2.8724    magn:    0.0250    constr:    0.0000
     atom:   60    charge:    2.8787    magn:    0.0004    constr:    0.0000
     atom:   61    charge:    2.8667    magn:    0.0108    constr:    0.0000
     atom:   62    charge:    2.8699    magn:    0.0056    constr:    0.0000
     atom:   63    charge:    2.8732    magn:    0.0002    constr:    0.0000
     atom:   64    charge:    2.8685    magn:    0.0003    constr:    0.0000
     atom:   65    charge:    2.8696    magn:    0.0055    constr:    0.0000
     atom:   66    charge:    2.8830    magn:    0.0014    constr:    0.0000
     atom:   67    charge:    1.7939    magn:    0.0426    constr:    0.0000
     atom:   68    charge:    2.8662    magn:    0.0735    constr:    0.0000
     atom:   69    charge:    2.8667    magn:    0.0108    constr:    0.0000
     atom:   70    charge:    2.8703    magn:    0.0000    constr:    0.0000
     atom:   71    charge:    2.8711    magn:    0.0002    constr:    0.0000
     atom:   72    charge:    2.8699    magn:   -0.0002    constr:    0.0000
     atom:   73    charge:    2.8651    magn:    0.0116    constr:    0.0000
     atom:   74    charge:    2.8063    magn:    0.1279    constr:    0.0000
     atom:   75    charge:    1.7939    magn:    0.0426    constr:    0.0000
     atom:   76    charge:    2.8787    magn:    0.0004    constr:    0.0000
     atom:   77    charge:    2.8692    magn:    0.0038    constr:    0.0000
     atom:   78    charge:    2.8683    magn:    0.0001    constr:    0.0000
     atom:   79    charge:    2.8700    magn:    0.0002    constr:    0.0000
     atom:   80    charge:    2.8744    magn:    0.0063    constr:    0.0000
     atom:   81    charge:    2.8651    magn:    0.0116    constr:    0.0000
     atom:   82    charge:    2.8829    magn:    0.0014    constr:    0.0000
     atom:   83    charge:    2.8724    magn:    0.0250    constr:    0.0000
     atom:   84    charge:    2.8714    magn:    0.0049    constr:    0.0000
     atom:   85    charge:    2.8688    magn:    0.0006    constr:    0.0000
     atom:   86    charge:    2.8694    magn:    0.0001    constr:    0.0000
     atom:   87    charge:    2.8700    magn:    0.0002    constr:    0.0000
     atom:   88    charge:    2.8699    magn:   -0.0002    constr:    0.0000
     atom:   89    charge:    2.8696    magn:    0.0055    constr:    0.0000
     atom:   90    charge:    2.8669    magn:    0.0035    constr:    0.0000
     atom:   91    charge:    2.8730    magn:    0.0004    constr:    0.0000
     atom:   92    charge:    2.8705    magn:    0.0001    constr:    0.0000
     atom:   93    charge:    2.8688    magn:    0.0006    constr:    0.0000
     atom:   94    charge:    2.8683    magn:    0.0001    constr:    0.0000
     atom:   95    charge:    2.8711    magn:    0.0002    constr:    0.0000
     atom:   96    charge:    2.8685    magn:    0.0003    constr:    0.0000
     atom:   97    charge:    2.8690    magn:   -0.0001    constr:    0.0000
     atom:   98    charge:    2.8702    magn:    0.0005    constr:    0.0000

     total cpu time spent up to now is      975.9 secs

     End of self-consistent calculation

 ------ SPIN UP ------------


          k = 0.0000 0.0000 0.0000 ( 77079 PWs)   bands (ev):

   -22.0167 -21.6737 -21.4076 -21.4002 -21.3523 -21.3062 -21.2902 -20.9288
   -20.6684 -20.6606 -20.6215 -20.5561 -20.5529 -20.4254 -20.3017 -20.2939
   -20.2841 -20.1531 -20.1185 -19.6350 -19.4446 -19.4266 -19.3915 -19.3874
   -19.3724 -19.3673 -19.3459 -19.3274 -19.3271 -19.1781 -19.1535 -19.0422
   -18.9775 -18.9625 -18.9515 -18.7877 -18.7756 -18.5577 -18.5568 -18.5376
   -18.5087 -18.4435 -18.4150 -18.3727 -18.3556 -18.3327 -18.3310 -16.9411
   -14.7676 -13.1704 -12.7937 -12.7888 -12.7433 -12.7126 -12.7073 -12.6270
   -12.5845 -12.5268 -12.5173 -12.4700 -12.4007 -12.1619 -12.0669 -12.0615
   -12.0255 -11.9780 -11.9405 -11.5760 -11.4270 -11.4157 -11.4013 -11.3948
   -11.3529 -11.3456 -11.3441 -11.3132 -11.2994 -11.0944 -10.9902 -10.8875
   -10.7160 -10.7080 -10.6628 -10.6420 -10.4796 -10.0870 -10.0366 -10.0008
    -9.9197  -9.8820  -9.7885  -9.4295  -9.3811  -9.3162  -9.3099  -9.2861
    -9.2729  -9.1956  -9.0736  -9.0346  -8.9315  -8.9072  -8.9065  -8.8979
    -8.8829  -8.8799  -8.8505  -8.8475  -8.8422  -8.8294  -8.8289  -8.8167
    -8.7990  -8.7896  -8.7759  -8.7503  -8.7303  -8.7249  -8.6594  -8.6169
    -8.4654  -8.4480  -8.2162  -8.1620  -8.1593  -8.0925  -8.0691  -8.0470
    -7.8422  -7.8388  -7.8349  -7.7909  -7.7339  -7.7195  -7.6008  -7.5110
    -7.5077  -7.4771  -7.4733  -7.4511  -7.4227  -7.3806  -7.3730  -7.3472
    -7.3454  -7.3452  -7.3300  -7.2506  -7.2330  -7.2300  -7.1734  -7.0351
    -6.9870  -6.9611  -6.9069  -6.7959  -6.6026  -6.4617  -6.3453  -6.2029
    -6.1670  -6.1430  -6.1203  -6.0954  -6.0653  -6.0545  -6.0531  -6.0414
    -6.0307  -6.0126  -6.0102  -5.9784  -5.8778  -5.7750  -5.7349  -5.5945
    -5.5446  -5.4520  -5.4466  -5.4395  -5.3224  -5.2223  -4.8306  -4.8193
    -4.8184  -4.7970  -4.7700  -4.7381  -4.6644  -4.6527  -4.5516  -4.5127
    -4.5045  -4.4756  -4.4157  -3.0208   0.1549   0.1811   0.6694   0.6837
     0.7085   0.7349   0.7388   0.7501   0.7756   0.8001   0.8031   0.8119
     0.8208   0.8389   0.8678   0.8716   0.8734   0.9305   0.9408   0.9549
     1.0478   1.1606   1.2147   1.2470   1.2850   1.3086   1.3175   1.3306
     1.3370   1.3446   1.3514   1.3734   1.4131   1.4269   1.4323   1.4400
     1.4477   1.4603   1.4856   1.8822   2.0894   2.0979   2.1001   2.1202
     2.1206   2.1494   2.1557   2.2103   2.2692

 ------ SPIN DOWN ----------


          k = 0.0000 0.0000 0.0000 ( 77079 PWs)   bands (ev):

   -21.8907 -21.6385 -21.4039 -21.3941 -21.3478 -21.2819 -21.2792 -20.8909
   -20.6616 -20.6469 -20.6176 -20.5466 -20.5425 -20.4165 -20.2966 -20.2862
   -20.2595 -20.1285 -20.1126 -19.6036 -19.4341 -19.4170 -19.3831 -19.3805
   -19.3681 -19.3630 -19.3366 -19.3226 -19.3048 -19.1627 -19.1434 -19.0309
   -18.9711 -18.9575 -18.9306 -18.7802 -18.7587 -18.5488 -18.5429 -18.5290
   -18.4977 -18.4375 -18.4047 -18.3621 -18.3496 -18.3225 -18.3177 -16.7476
   -14.6646 -13.1308 -12.7899 -12.7823 -12.7408 -12.7104 -12.7052 -12.6237
   -12.5797 -12.5221 -12.5127 -12.4603 -12.3953 -12.1534 -12.0618 -12.0564
   -12.0219 -11.9700 -11.9318 -11.5631 -11.4165 -11.4057 -11.3966 -11.3890
   -11.3511 -11.3399 -11.3395 -11.3051 -11.2878 -11.0730 -10.9776 -10.8807
   -10.7125 -10.7068 -10.6574 -10.6346 -10.4746 -10.0748 -10.0298  -9.9919
    -9.9082  -9.8673  -9.7784  -9.4207  -9.3267  -9.3088  -9.2998  -9.2790
    -9.2699  -9.1931  -9.0631  -8.9216  -8.9210  -8.9021  -8.8953  -8.8936
    -8.8781  -8.8756  -8.8442  -8.8421  -8.8352  -8.8231  -8.8154  -8.8142
    -8.7944  -8.7798  -8.7738  -8.7376  -8.7140  -8.6497  -8.6430  -8.6085
    -8.4613  -8.4313  -8.2118  -8.1600  -8.1560  -8.0769  -8.0582  -7.9194
    -7.8342  -7.8255  -7.8074  -7.7836  -7.7058  -7.6956  -7.5917  -7.5050
    -7.5017  -7.4678  -7.4498  -7.4268  -7.4217  -7.3763  -7.3681  -7.3407
    -7.3368  -7.3224  -7.2931  -7.2428  -7.2184  -7.1774  -7.1599  -7.0326
    -6.9754  -6.9586  -6.8873  -6.7780  -6.5939  -6.4538  -6.2419  -6.1978
    -6.1630  -6.1356  -6.0973  -6.0782  -6.0485  -6.0399  -6.0378  -6.0324
    -6.0203  -5.9960  -5.9684  -5.9561  -5.8165  -5.7539  -5.7290  -5.5878
    -5.5103  -5.4367  -5.4351  -5.4027  -5.2606  -5.1972  -4.7936  -4.7813
    -4.7806  -4.7735  -4.7488  -4.7157  -4.6372  -4.6170  -4.5303  -4.5014
    -4.4824  -4.4588  -4.0913  -2.8160   0.1828   0.2841   0.6919   0.7014
     0.7096   0.7405   0.7526   0.7534   0.7775   0.8004   0.8033   0.8171
     0.8217   0.8401   0.8724   0.8741   0.8858   0.9388   0.9483   0.9608
     1.0528   1.1821   1.2265   1.2613   1.2866   1.3091   1.3176   1.3313
     1.3449   1.3472   1.3580   1.3826   1.4171   1.4272   1.4323   1.4402
     1.4481   1.4606   1.4885   1.8839   2.1005   2.1006   2.1202   2.1235
     2.1506   2.1555   2.1604   2.2126   2.3007

     highest occupied, lowest unoccupied level (ev):    -3.0208   -4.0913

!    total energy              =   -1940.38132839 Ry
     Harris-Foulkes estimate   =   -1940.38132837 Ry
     estimated scf accuracy    <       0.00000039 Ry

     total all-electron energy =     -7770.205805 Ry

     The total energy is the sum of the following terms:

     one-electron contribution =  -10674.53464624 Ry
     hartree contribution      =    5423.04965682 Ry
     xc contribution           =    -430.96935435 Ry
     ewald contribution        =    4385.53018110 Ry
     DFT-D3 Dispersion         =      -0.27070780 Ry
     one-center paw contrib.   =    -643.18645791 Ry

     total magnetization       =     1.00 Bohr mag/cell
[...]
     atom:   55    charge:    2.6663    magn:    0.0002    constr:    0.0000
     atom:   56    charge:    2.6698    magn:   -0.0000    constr:    0.0000
     atom:   57    charge:    2.6711    magn:   -0.0001    constr:    0.0000
     atom:   58    charge:    2.6724    magn:    0.0035    constr:    0.0000
     atom:   59    charge:    2.6605    magn:    0.0243    constr:    0.0000
     atom:   60    charge:    2.6664    magn:    0.0002    constr:    0.0000
     atom:   61    charge:    2.6706    magn:    0.0105    constr:    0.0000
     atom:   62    charge:    2.6663    magn:    0.0052    constr:    0.0000
     atom:   63    charge:    2.6663    magn:    0.0002    constr:    0.0000
     atom:   64    charge:    2.6745    magn:    0.0003    constr:    0.0000
     atom:   65    charge:    2.6746    magn:    0.0041    constr:    0.0000
     atom:   66    charge:    2.6779    magn:    0.0004    constr:    0.0000
     atom:   67    charge:    1.7242    magn:    0.0430    constr:    0.0000
     atom:   68    charge:    2.6572    magn:    0.0748    constr:    0.0000
     atom:   69    charge:    2.6706    magn:    0.0105    constr:    0.0000
     atom:   70    charge:    2.6745    magn:    0.0001    constr:    0.0000
     atom:   71    charge:    2.6739    magn:    0.0003    constr:    0.0000
     atom:   72    charge:    2.6692    magn:   -0.0001    constr:    0.0000
     atom:   73    charge:    2.6644    magn:    0.0101    constr:    0.0000
     atom:   74    charge:    2.6290    magn:    0.1095    constr:    0.0000
     atom:   75    charge:    1.7240    magn:    0.0430    constr:    0.0000
     atom:   76    charge:    2.6664    magn:    0.0002    constr:    0.0000
     atom:   77    charge:    2.6728    magn:    0.0034    constr:    0.0000
     atom:   78    charge:    2.6716    magn:    0.0001    constr:    0.0000
     atom:   79    charge:    2.6682    magn:    0.0001    constr:    0.0000
     atom:   80    charge:    2.6616    magn:    0.0048    constr:    0.0000
     atom:   81    charge:    2.6644    magn:    0.0101    constr:    0.0000
     atom:   82    charge:    2.6779    magn:    0.0004    constr:    0.0000
     atom:   83    charge:    2.6605    magn:    0.0243    constr:    0.0000
     atom:   84    charge:    2.6631    magn:    0.0047    constr:    0.0000
     atom:   85    charge:    2.6702    magn:    0.0005    constr:    0.0000
     atom:   86    charge:    2.6699    magn:    0.0001    constr:    0.0000
     atom:   87    charge:    2.6682    magn:    0.0001    constr:    0.0000
     atom:   88    charge:    2.6692    magn:   -0.0001    constr:    0.0000
     atom:   89    charge:    2.6746    magn:    0.0041    constr:    0.0000
     atom:   90    charge:    2.6724    magn:    0.0035    constr:    0.0000
     atom:   91    charge:    2.6733    magn:    0.0004    constr:    0.0000
     atom:   92    charge:    2.6754    magn:    0.0001    constr:    0.0000
     atom:   93    charge:    2.6703    magn:    0.0005    constr:    0.0000
     atom:   94    charge:    2.6716    magn:    0.0001    constr:    0.0000
     atom:   95    charge:    2.6739    magn:    0.0003    constr:    0.0000
     atom:   96    charge:    2.6745    magn:    0.0003    constr:    0.0000
     atom:   97    charge:    2.6711    magn:   -0.0001    constr:    0.0000
     atom:   98    charge:    2.6751    magn:    0.0004    constr:    0.0000

     total cpu time spent up to now is     4375.9 secs

     End of self-consistent calculation

 ------ SPIN UP ------------


          k = 0.0000 0.0000 0.0000 ( 77355 PWs)   bands (ev):

   -22.0098 -21.6836 -21.4214 -21.4036 -21.3634 -21.2994 -21.2737 -20.9092
   -20.6728 -20.6607 -20.6134 -20.5493 -20.5482 -20.4342 -20.2985 -20.2881
   -20.2618 -20.1356 -20.0808 -19.6158 -19.4541 -19.4323 -19.3927 -19.3897
   -19.3753 -19.3669 -19.3533 -19.3113 -19.2871 -19.1781 -19.1552 -19.0345
   -18.9714 -18.9627 -18.9313 -18.7671 -18.7649 -18.5647 -18.5435 -18.5401
   -18.5062 -18.4615 -18.4058 -18.3752 -18.3623 -18.3135 -18.3000 -16.8172
   -14.7594 -13.1919 -12.7941 -12.7888 -12.7439 -12.7196 -12.7149 -12.6333
   -12.5847 -12.5268 -12.5208 -12.4556 -12.3939 -12.1667 -12.0616 -12.0569
   -12.0158 -11.9819 -11.9328 -11.5827 -11.4219 -11.4212 -11.4069 -11.3949
   -11.3596 -11.3491 -11.3336 -11.3016 -11.2945 -11.0836 -11.0012 -10.8864
   -10.7235 -10.7079 -10.6646 -10.6285 -10.4701 -10.0772 -10.0198 -10.0042
    -9.9336  -9.8787  -9.7916  -9.4229  -9.3724  -9.3446  -9.3011  -9.2896
    -9.2796  -9.2041  -9.0786  -9.0295  -8.9604  -8.9077  -8.9065  -8.8984
    -8.8981  -8.8865  -8.8709  -8.8582  -8.8546  -8.8330  -8.8214  -8.8114
    -8.8010  -8.7717  -8.7585  -8.7262  -8.7131  -8.7040  -8.6438  -8.6193
    -8.4616  -8.4336  -8.2428  -8.1733  -8.1711  -8.0725  -8.0678  -8.0363
    -7.8428  -7.8356  -7.8070  -7.7845  -7.7258  -7.7141  -7.5849  -7.5131
    -7.4995  -7.4854  -7.4840  -7.4545  -7.4318  -7.3942  -7.3770  -7.3437
    -7.3391  -7.3162  -7.3156  -7.2250  -7.2226  -7.2197  -7.1514  -7.0369
    -7.0100  -6.9698  -6.8757  -6.7933  -6.6152  -6.4795  -6.3364  -6.1892
    -6.1781  -6.1531  -6.1272  -6.1023  -6.0627  -6.0570  -6.0510  -6.0300
    -6.0279  -6.0230  -6.0016  -5.9474  -5.8783  -5.7847  -5.7706  -5.6399
    -5.5392  -5.4470  -5.4453  -5.4381  -5.3048  -5.2239  -4.9599  -4.9595
    -4.8161  -4.8045  -4.7730  -4.7402  -4.6729  -4.6536  -4.5600  -4.5169
    -4.5008  -4.4733  -4.3895  -3.0769   0.0542   0.1783   0.6505   0.6652
     0.7079   0.7206   0.7280   0.7415   0.7732   0.7966   0.7975   0.7990
     0.8172   0.8335   0.8543   0.8695   0.8763   0.9140   0.9442   0.9456
     1.0290   1.1408   1.2064   1.2433   1.2767   1.3063   1.3139   1.3248
     1.3293   1.3424   1.3510   1.3752   1.4140   1.4283   1.4332   1.4412
     1.4497   1.4654   1.4899   1.8840   2.0619   2.0909   2.0937   2.1161
     2.1183   2.1468   2.1504   2.2114   2.4433

 ------ SPIN DOWN ----------


          k = 0.0000 0.0000 0.0000 ( 77355 PWs)   bands (ev):

   -21.8890 -21.6505 -21.4182 -21.3988 -21.3589 -21.2726 -21.2659 -20.8761
   -20.6663 -20.6488 -20.6098 -20.5423 -20.5371 -20.4256 -20.2932 -20.2800
   -20.2388 -20.1084 -20.0741 -19.5840 -19.4456 -19.4251 -19.3882 -19.3833
   -19.3710 -19.3632 -19.3402 -19.2904 -19.2830 -19.1612 -19.1442 -19.0264
   -18.9633 -18.9574 -18.9059 -18.7608 -18.7499 -18.5572 -18.5371 -18.5247
   -18.4959 -18.4551 -18.3988 -18.3646 -18.3568 -18.3022 -18.2718 -16.6266
   -14.6538 -13.1516 -12.7906 -12.7825 -12.7414 -12.7177 -12.7133 -12.6292
   -12.5800 -12.5227 -12.5170 -12.4439 -12.3881 -12.1594 -12.0566 -12.0525
   -12.0126 -11.9737 -11.9237 -11.5694 -11.4143 -11.4100 -11.4044 -11.3873
   -11.3578 -11.3403 -11.3286 -11.2915 -11.2863 -11.0635 -10.9886 -10.8791
   -10.7201 -10.7067 -10.6587 -10.6208 -10.4647 -10.0651 -10.0125  -9.9948
    -9.9227  -9.8647  -9.7814  -9.4143  -9.3355  -9.3261  -9.2933  -9.2847
    -9.2759  -9.2017  -9.0675  -8.9471  -8.9193  -8.9040  -8.9022  -8.8956
    -8.8921  -8.8804  -8.8609  -8.8546  -8.8485  -8.8208  -8.8183  -8.8054
    -8.7915  -8.7661  -8.7560  -8.7137  -8.6973  -8.6337  -8.6165  -8.6110
    -8.4571  -8.4159  -8.2401  -8.1707  -8.1693  -8.0625  -8.0515  -7.9183
    -7.8301  -7.8097  -7.7987  -7.7776  -7.7008  -7.6889  -7.5766  -7.5060
    -7.4931  -7.4799  -7.4532  -7.4361  -7.4308  -7.3905  -7.3718  -7.3332
    -7.3184  -7.3111  -7.2770  -7.2141  -7.2080  -7.1623  -7.1362  -7.0344
    -6.9965  -6.9667  -6.8572  -6.7765  -6.6049  -6.4715  -6.2338  -6.1831
    -6.1724  -6.1463  -6.1092  -6.0879  -6.0502  -6.0431  -6.0391  -6.0222
    -6.0144  -6.0024  -5.9443  -5.9378  -5.8179  -5.7630  -5.7629  -5.6320
    -5.5104  -5.4368  -5.4316  -5.3916  -5.2463  -5.1988  -4.9236  -4.9228
    -4.7831  -4.7784  -4.7544  -4.7187  -4.6572  -4.6055  -4.5423  -4.5067
    -4.4739  -4.4526  -4.0654  -2.8659   0.1799   0.2040   0.6706   0.6848
     0.7089   0.7264   0.7424   0.7450   0.7752   0.7969   0.7991   0.8034
     0.8181   0.8348   0.8579   0.8771   0.8796   0.9247   0.9513   0.9520
     1.0344   1.1629   1.2186   1.2561   1.2778   1.3067   1.3140   1.3290
     1.3351   1.3433   1.3590   1.3823   1.4180   1.4286   1.4331   1.4414
     1.4502   1.4657   1.4930   1.8857   2.0933   2.0945   2.1186   2.1190
     2.1271   2.1476   2.1557   2.3376   2.4467

     highest occupied, lowest unoccupied level (ev):    -3.0769   -4.0654

!    total energy              =   -1940.39400773 Ry
     Harris-Foulkes estimate   =   -1940.39400773 Ry
     estimated scf accuracy    <          4.1E-09 Ry

     total all-electron energy =     -7770.218485 Ry

     The total energy is the sum of the following terms:

     one-electron contribution =  -10657.20787442 Ry
     hartree contribution      =    5414.27957241 Ry
     xc contribution           =    -430.78937247 Ry
     ewald contribution        =    4376.77702022 Ry
     DFT-D3 Dispersion         =      -0.27036191 Ry
     one-center paw contrib.   =    -643.18299157 Ry

     total magnetization       =     1.00 Bohr mag/cell
     absolute magnetization    =     1.17 Bohr mag/cell

     convergence has been achieved in  16 iterations

     negative rho (up, down):  4.844E-01 3.974E-03

     Forces acting on atoms (cartesian axes, Ry/au):

     atom    1 type  1   force =     0.00025494   -0.00064936    0.00000000
     atom    2 type  1   force =     0.00010345   -0.00052430    0.00000000
     atom    3 type  1   force =    -0.00027549    0.00007456    0.00000000
     atom    4 type  1   force =    -0.00004834    0.00023671    0.00000000
     atom    5 type  1   force =     0.00025495   -0.00046258    0.00000000
     atom    6 type  1   force =    -0.00012000   -0.00006935    0.00000000
     atom    7 type  1   force =    -0.00043029    0.00025123    0.00000000
     atom    8 type  1   force =    -0.00011078    0.00020779    0.00000000
     atom    9 type  1   force =     0.00008363   -0.00038976    0.00000000
     atom   10 type  1   force =    -0.00013964   -0.00040854    0.00000000
     atom   11 type  1   force =    -0.00000760   -0.00047896    0.00000000
     atom   12 type  1   force =     0.00044285   -0.00023170    0.00000000
     atom   13 type  1   force =     0.00044607   -0.00025870    0.00000000
     atom   14 type  1   force =    -0.00000071    0.00014131    0.00000000
     atom   15 type  1   force =    -0.00048123    0.00000907    0.00000000
     atom   16 type  1   force =    -0.00050324   -0.00014063    0.00000000
     atom   17 type  1   force =     0.00003838   -0.00047992    0.00000000
     atom   18 type  1   force =     0.00041880   -0.00035521    0.00000000
     atom   19 type  1   force =     0.00002943   -0.00002613    0.00000000
     atom   20 type  1   force =     0.00041072   -0.00026611    0.00000000
     atom   21 type  1   force =     0.00052395    0.00001194    0.00000000
     atom   22 type  1   force =    -0.00006287   -0.00069889    0.00000000
     atom   23 type  1   force =    -0.00081360    0.00010773    0.00000000
     atom   24 type  1   force =    -0.00066196    0.00031598    0.00000000
     atom   25 type  4   force =     0.00006053   -0.00017507    0.00000000
     atom   26 type  1   force =     0.00047355   -0.00019924    0.00000000
     atom   27 type  1   force =     0.00039104    0.00025386    0.00000000
     atom   28 type  1   force =    -0.00023375   -0.00007210    0.00000000
     atom   29 type  1   force =    -0.00010329   -0.00012363    0.00000000
     atom   30 type  1   force =    -0.00043755   -0.00019694    0.00000000
     atom   31 type  1   force =    -0.00076164    0.00042923    0.00000000
     atom   32 type  1   force =    -0.00059774    0.00037342    0.00000000
     atom   33 type  1   force =     0.00043920    0.00020896    0.00000000
     atom   34 type  1   force =     0.00027949    0.00034401    0.00000000
     atom   35 type  1   force =    -0.00020968    0.00021094    0.00000000
     atom   36 type  1   force =    -0.00009377   -0.00007162    0.00000000
     atom   37 type  1   force =    -0.00013388    0.00007868    0.00000000
     atom   38 type  1   force =    -0.00004627    0.00047542    0.00000000
     atom   39 type  1   force =    -0.00049198    0.00064751    0.00000000
     atom   40 type  1   force =    -0.00011230    0.00050792    0.00000000
     atom   41 type  1   force =     0.00039664    0.00013750    0.00000000
     atom   42 type  1   force =     0.00051288    0.00018390    0.00000000
     atom   43 type  1   force =     0.00028868   -0.00016301    0.00000000
     atom   44 type  1   force =     0.00001861    0.00012098    0.00000000
     atom   45 type  1   force =     0.00005915    0.00015101    0.00000000
     atom   46 type  1   force =     0.00057767    0.00040408    0.00000000
     atom   47 type  1   force =    -0.00024177    0.00041201    0.00000000
     atom   48 type  1   force =    -0.00022078   -0.00000034    0.00000000
     atom   49 type  1   force =     0.00069639    0.00011145    0.00000000
     atom   50 type  2   force =     0.00025587    0.00006357    0.00000000
     atom   51 type  2   force =    -0.00026830    0.00001300    0.00000000
     atom   52 type  2   force =    -0.00063520   -0.00015745    0.00000000
     atom   53 type  2   force =    -0.00023350   -0.00007085    0.00000000
     atom   54 type  2   force =     0.00072702   -0.00008725    0.00000000
     atom   55 type  2   force =     0.00063411   -0.00031312    0.00000000
     atom   56 type  2   force =     0.00046328   -0.00026786    0.00000000
     atom   57 type  2   force =     0.00024867   -0.00026399    0.00000000
     atom   58 type  2   force =    -0.00021204    0.00009729    0.00000000
     atom   59 type  2   force =    -0.00035431   -0.00016776    0.00000000
     atom   60 type  2   force =    -0.00034132   -0.00011346    0.00000000
     atom   61 type  2   force =    -0.00006727   -0.00026751    0.00000000
     atom   62 type  2   force =     0.00073448   -0.00041919    0.00000000
     atom   63 type  2   force =     0.00059086   -0.00039162    0.00000000
     atom   64 type  2   force =     0.00020458    0.00001820    0.00000000
     atom   65 type  2   force =     0.00015291    0.00003245    0.00000000
     atom   66 type  2   force =    -0.00018175    0.00010642    0.00000000
     atom   67 type  3   force =     0.00009726   -0.00003679    0.00000000
     atom   68 type  2   force =    -0.00011289    0.00009644    0.00000000
     atom   69 type  2   force =     0.00021470    0.00019600    0.00000000
     atom   70 type  2   force =     0.00044312   -0.00058908    0.00000000
     atom   71 type  2   force =     0.00020853   -0.00010739    0.00000000
     atom   72 type  2   force =     0.00001912   -0.00007634    0.00000000
     atom   73 type  2   force =    -0.00007701   -0.00000837    0.00000000
     atom   74 type  2   force =     0.00014965   -0.00005128    0.00000000
     atom   75 type  5   force =     0.00011939    0.00005447    0.00000000
     atom   76 type  2   force =    -0.00005221    0.00033834    0.00000000
     atom   77 type  2   force =    -0.00004745    0.00022991    0.00000000
     atom   78 type  2   force =    -0.00026310    0.00011459    0.00000000
     atom   79 type  2   force =    -0.00030876    0.00030245    0.00000000
     atom   80 type  2   force =     0.00002381   -0.00001353    0.00000000
     atom   81 type  2   force =    -0.00004319    0.00009155    0.00000000
     atom   82 type  2   force =    -0.00020167    0.00012891    0.00000000
     atom   83 type  2   force =    -0.00004187    0.00036286    0.00000000
     atom   84 type  2   force =    -0.00018122    0.00060974    0.00000000
     atom   85 type  2   force =    -0.00042781    0.00007218    0.00000000
     atom   86 type  2   force =    -0.00042210    0.00024109    0.00000000
     atom   87 type  2   force =    -0.00041823    0.00011506    0.00000000
     atom   88 type  2   force =     0.00007085    0.00002430    0.00000000
     atom   89 type  2   force =     0.00003585   -0.00014596    0.00000000
     atom   90 type  2   force =    -0.00020861    0.00012473    0.00000000
     atom   91 type  2   force =    -0.00015386    0.00021428    0.00000000
     atom   92 type  2   force =    -0.00017162    0.00009463    0.00000000
     atom   93 type  2   force =    -0.00028155    0.00032791    0.00000000
     atom   94 type  2   force =    -0.00023762    0.00016781    0.00000000
     atom   95 type  2   force =     0.00019372   -0.00012680    0.00000000
     atom   96 type  2   force =     0.00008280   -0.00018601    0.00000000
     atom   97 type  2   force =     0.00034527   -0.00008289    0.00000000
     atom   98 type  2   force =     0.00006775   -0.00025883    0.00000000

     Total force =     0.004313     Total SCF correction =     0.000120


     Computing stress (Cartesian axis) and pressure


     negative rho (up, down):  4.844E-01 3.974E-03
          total   stress  (Ry/bohr**3)                   (kbar)     P=   -0.13
   0.00000036  -0.00000001   0.00000000          0.05     -0.00      0.00
  -0.00000001   0.00000036   0.00000000         -0.00      0.05      0.00
   0.00000000   0.00000000  -0.00000338          0.00      0.00     -0.50


     Writing output data file C2Cn.save/
 
     init_run     :      8.51s CPU      8.87s WALL (       2 calls)
     electrons    :   4151.65s CPU   4194.40s WALL (      10 calls)
     update_pot   :     23.74s CPU     23.87s WALL (       8 calls)
     forces       :     33.44s CPU     34.62s WALL (      10 calls)
     stress       :    115.33s CPU    116.22s WALL (      10 calls)

     Called by init_run:
     wfcinit      :      3.34s CPU      3.51s WALL (       2 calls)
     potinit      :      1.80s CPU      1.83s WALL (       2 calls)
     hinit0       :      2.52s CPU      2.56s WALL (       2 calls)

     Called by electrons:
     c_bands      :   4045.06s CPU   4080.04s WALL (      99 calls)
     sum_band     :     54.13s CPU     56.74s WALL (      99 calls)
     v_of_rho     :     17.90s CPU     18.36s WALL (     106 calls)
     newd         :      6.11s CPU      8.10s WALL (     106 calls)
     PAW_pot      :     20.09s CPU     20.30s WALL (     114 calls)
     mix_rho      :      1.39s CPU      1.62s WALL (      99 calls)

     Called by c_bands:
     init_us_2    :      3.85s CPU      3.94s WALL (     456 calls)
     rcgdiagg     :   3944.36s CPU   3976.88s WALL (     222 calls)
     wfcrot       :    100.82s CPU    102.93s WALL (     200 calls)

     Called by sum_band:
     sum_band:bec :      0.14s CPU      0.14s WALL (     214 calls)
     addusdens    :      6.52s CPU      8.51s WALL (      99 calls)

     Called by *cgdiagg:
     h_psi        :   1993.81s CPU   2010.11s WALL (  177713 calls)
     s_psi        :   1186.81s CPU   1197.33s WALL (  355226 calls)
     rdiaghg      :      3.04s CPU      3.16s WALL (     200 calls)

     Called by h_psi:
     h_psi:pot    :   1991.84s CPU   2008.11s WALL (  177713 calls)
     h_psi:calbec :    719.72s CPU    725.63s WALL (  177713 calls)
     vloc_psi     :    666.05s CPU    673.11s WALL (  177713 calls)
     add_vuspsi   :    604.14s CPU    608.12s WALL (  177713 calls)
     hs_1psi      :   2500.77s CPU   2520.66s WALL (  177513 calls)
     s_1psi       :   1222.99s CPU   1233.15s WALL (  177513 calls)

     General routines
     calbec       :   1354.60s CPU   1367.06s WALL (  355540 calls)
     fft          :     15.28s CPU     15.48s WALL (    2126 calls)
     ffts         :      0.81s CPU      0.82s WALL (     198 calls)
     fftw         :    625.57s CPU    632.18s WALL (  429164 calls)
 
     Parallel routines
     fft_scatt_xy :     61.85s CPU     62.37s WALL (  431488 calls)
     fft_scatt_yz :    186.38s CPU    188.69s WALL (  431488 calls)
 
     PWSCF        :      1h12m CPU      1h13m WALL

 
   This run was terminated on:  14:30:33   1Jul2021            

=------------------------------------------------------------------------------=
   JOB DONE.
=------------------------------------------------------------------------------=
