
     Program PWSCF v.6.8 starts on 15Dec2022 at 18: 9:22 

     This program is part of the open-source Quantum ESPRESSO suite
     for quantum simulation of materials; please cite
         "P. Giannozzi et al., J. Phys.:Condens. Matter 21 395502 (2009);
         "P. Giannozzi et al., J. Phys.:Condens. Matter 29 465901 (2017);
         "P. Giannozzi et al., J. Chem. Phys. 152 154105 (2020);
          URL http://www.quantum-espresso.org", 
     in publications or presentations arising from this work. More details at
     http://www.quantum-espresso.org/quote

     Parallel version (MPI & OpenMP), running on      32 processor cores
     Number of MPI processes:                32
     Threads/MPI process:                     1

     MPI processes distributed on     1 nodes
     R & G space division:  proc/nbgrp/npool/nimage =      32
     153407 MiB available memory on the printing compute node when the environment starts
 
     Waiting for input...
     Reading input from standard input

     Current dimensions of program PWSCF are:
     Max number of different atomic species (ntypx) = 10
     Max number of k-points (npk) =  40000
     Max angular momentum in pseudopotentials (lmaxx) =  4
     file N.pbe-n-kjpaw_psl.1.0.0.UPF: wavefunction(s)  2S renormalized

     Subspace diagonalization in iterative solution of the eigenvalue problem:
     one sub-group per band group will be used
     scalapack distributed-memory algorithm (size of sub-group:  5*  5 procs)

 
     Parallelization info
     --------------------
     sticks:   dense  smooth     PW     G-vecs:    dense   smooth      PW
     Min          24      11      3                 3254     1075     195
     Max          25      12      4                 3280     1100     228
     Sum         769     367    121               104505    34753    6945
 
     Using Slab Decomposition
 


     bravais-lattice index     =            0
     lattice parameter (alat)  =       4.7540  a.u.
     unit-cell volume          =     554.4197 (a.u.)^3
     number of atoms/cell      =            2
     number of atomic types    =            2
     number of electrons       =         8.00
     number of Kohn-Sham states=            8
     kinetic-energy cutoff     =      60.0000  Ry
     charge density cutoff     =     500.0000  Ry
     scf convergence threshold =      1.0E-12
     mixing beta               =       0.7000
     number of iterations used =            8  plain     mixing
     Exchange-correlation= SLA  PW   PBX  PBC
                           (   1   4   3   4   0   0   0)

     celldm(1)=   4.754042  celldm(2)=   0.000000  celldm(3)=   0.000000
     celldm(4)=   0.000000  celldm(5)=   0.000000  celldm(6)=   0.000000

     crystal axes: (cart. coord. in units of alat)
               a(1) = (   0.999645   0.000000   0.000000 )  
               a(2) = (  -0.499823   0.865718   0.000000 )  
               a(3) = (   0.000000   0.000000   5.962482 )  

     reciprocal axes: (cart. coord. in units 2 pi/alat)
               b(1) = (  1.000355  0.577555  0.000000 )  
               b(2) = (  0.000000  1.155110  0.000000 )  
               b(3) = (  0.000000  0.000000  0.167715 )  


     PseudoPot. # 1 for B  read from file:
     ./pseudo/B.pbe-n-kjpaw_psl.1.0.0.UPF
     MD5 check sum: 8c825a5969375aca5c2c6ad5945b3059
     Pseudo is Projector augmented-wave + core cor, Zval =  3.0
     Generated using &quot;atomic&quot; code by A. Dal Corso  v.6.3
     Shape of augmentation charge: PSQ
     Using radial grid of 1059 points,  4 beta functions with: 
                l(1) =   0
                l(2) =   0
                l(3) =   1
                l(4) =   1
     Q(r) pseudized with 0 coefficients 


     PseudoPot. # 2 for N  read from file:
     ./pseudo/N.pbe-n-kjpaw_psl.1.0.0.UPF
     MD5 check sum: 14c48229446f9f2d411169a3abcbc3fa
     Pseudo is Projector augmented-wave + core cor, Zval =  5.0
     Generated using &quot;atomic&quot; code by A. Dal Corso  v.6.3
     Shape of augmentation charge: PSQ
     Using radial grid of 1085 points,  4 beta functions with: 
                l(1) =   0
                l(2) =   0
                l(3) =   1
                l(4) =   1
     Q(r) pseudized with 0 coefficients 


     atomic species   valence    mass     pseudopotential
        B              3.00    10.81100     B ( 1.00)
        N              5.00    14.00670     N ( 1.00)

     No symmetry found



   Cartesian axes

     site n.     atom                  positions (alat units)
         1           B   tau(   1) = (  -0.0000005   0.5771458   2.9812408  )
         2           N   tau(   2) = (   0.4998232   0.2885725   2.9812408  )

     number of k points=    20  Methfessel-Paxton smearing, width (Ry)=  0.0100
                       cart. coord. in units 2pi/alat
        k(    1) = (   0.0000000   0.0000000   0.0000000), wk =   0.0555556
        k(    2) = (   0.0000000   0.1925184   0.0000000), wk =   0.1111111
        k(    3) = (   0.0000000   0.3850367   0.0000000), wk =   0.1111111
        k(    4) = (   0.0000000  -0.5775551   0.0000000), wk =   0.0555556
        k(    5) = (   0.1667258   0.0962592   0.0000000), wk =   0.1111111
        k(    6) = (   0.1667258   0.2887776   0.0000000), wk =   0.1111111
        k(    7) = (   0.1667258   0.4812959   0.0000000), wk =   0.1111111
        k(    8) = (   0.1667258  -0.4812959   0.0000000), wk =   0.1111111
        k(    9) = (   0.1667258  -0.2887776   0.0000000), wk =   0.1111111
        k(   10) = (   0.1667258  -0.0962592   0.0000000), wk =   0.1111111
        k(   11) = (   0.3334516   0.1925184   0.0000000), wk =   0.1111111
        k(   12) = (   0.3334516   0.3850367   0.0000000), wk =   0.1111111
        k(   13) = (   0.3334516   0.5775551   0.0000000), wk =   0.1111111
        k(   14) = (   0.3334516  -0.3850367   0.0000000), wk =   0.1111111
        k(   15) = (   0.3334516  -0.1925184   0.0000000), wk =   0.1111111
        k(   16) = (   0.3334516  -0.0000000   0.0000000), wk =   0.1111111
        k(   17) = (  -0.5001774  -0.2887776   0.0000000), wk =   0.0555556
        k(   18) = (  -0.5001774  -0.0962592   0.0000000), wk =   0.1111111
        k(   19) = (  -0.5001774   0.0962592   0.0000000), wk =   0.1111111
        k(   20) = (  -0.5001774  -0.8663327   0.0000000), wk =   0.0555556

     Dense  grid:   104505 G-vectors     FFT dimensions: (  36,  36, 216)

     Smooth grid:    34753 G-vectors     FFT dimensions: (  24,  24, 144)

     Estimated max dynamical RAM per process >       5.98 MB

     Estimated total dynamical RAM >     191.26 MB
 ----2D----2D----2D----2D----2D----2D----2D----2D----2D----2D----2D----2D
  The code is running with the 2D cutoff
  Please refer to:
  Sohier, T., Calandra, M., & Mauri, F. (2017), 
  Density functional perturbation theory for gated two-dimensional heterostructu
 res:
  Theoretical developments and application to flexural phonons in graphene.
  Physical Review B, 96(7), 75448. https://doi.org/10.1103/PhysRevB.96.075448
 ----2D----2D----2D----2D----2D----2D----2D----2D----2D----2D----2D----2D

     Initial potential from superposition of free atoms

     starting charge    7.99971, renormalised to    8.00000

     negative rho (up, down):  5.459E-05 0.000E+00
     Starting wfcs are    8 randomized atomic wfcs
     Checking if some PAW data can be deallocated... 

     total cpu time spent up to now is        1.5 secs

     Self-consistent Calculation

     iteration #  1     ecut=    60.00 Ry     beta= 0.70
     CG style diagonalization
     ethr =  1.00E-02,  avg # of iterations =  4.1

     negative rho (up, down):  4.769E-05 0.000E+00

     total cpu time spent up to now is        1.8 secs

     total energy              =     -39.71767209 Ry
     estimated scf accuracy    <       0.41115520 Ry

     iteration #  2     ecut=    60.00 Ry     beta= 0.70
     CG style diagonalization
     ethr =  5.14E-03,  avg # of iterations =  3.8

     negative rho (up, down):  5.068E-05 0.000E+00

     total cpu time spent up to now is        2.1 secs

     total energy              =     -39.81810401 Ry
     estimated scf accuracy    <       0.23228613 Ry

     iteration #  3     ecut=    60.00 Ry     beta= 0.70
     CG style diagonalization
     ethr =  2.90E-03,  avg # of iterations =  3.2

     negative rho (up, down):  6.297E-05 0.000E+00

     total cpu time spent up to now is        2.3 secs

     total energy              =     -39.86192567 Ry
     estimated scf accuracy    <       0.00181760 Ry

     iteration #  4     ecut=    60.00 Ry     beta= 0.70
     CG style diagonalization
     c_bands:  1 eigenvalues not converged
     ethr =  2.27E-05,  avg # of iterations =  6.3

     negative rho (up, down):  1.086E-04 0.000E+00

     total cpu time spent up to now is        2.7 secs

     total energy              =     -39.86387210 Ry
     estimated scf accuracy    <       0.00348627 Ry

     iteration #  5     ecut=    60.00 Ry     beta= 0.70
     CG style diagonalization
     ethr =  2.27E-05,  avg # of iterations =  3.6

     negative rho (up, down):  1.327E-04 0.000E+00

     total cpu time spent up to now is        3.0 secs

     total energy              =     -39.86487277 Ry
     estimated scf accuracy    <       0.00032200 Ry

     iteration #  6     ecut=    60.00 Ry     beta= 0.70
     CG style diagonalization
     ethr =  4.02E-06,  avg # of iterations =  3.4

     negative rho (up, down):  1.275E-04 0.000E+00

     total cpu time spent up to now is        3.3 secs

     total energy              =     -39.86485089 Ry
     estimated scf accuracy    <       0.00010726 Ry

     iteration #  7     ecut=    60.00 Ry     beta= 0.70
     CG style diagonalization
     ethr =  1.34E-06,  avg # of iterations =  3.4

     negative rho (up, down):  1.262E-04 0.000E+00

     total cpu time spent up to now is        3.5 secs

     total energy              =     -39.86487135 Ry
     estimated scf accuracy    <       0.00000282 Ry

     iteration #  8     ecut=    60.00 Ry     beta= 0.70
     CG style diagonalization
     ethr =  3.53E-08,  avg # of iterations =  3.8

     negative rho (up, down):  1.263E-04 0.000E+00

     total cpu time spent up to now is        3.8 secs

     total energy              =     -39.86487341 Ry
     estimated scf accuracy    <       0.00000075 Ry

     iteration #  9     ecut=    60.00 Ry     beta= 0.70
     CG style diagonalization
     ethr =  9.34E-09,  avg # of iterations =  3.4

     negative rho (up, down):  1.264E-04 0.000E+00

     total cpu time spent up to now is        4.0 secs

     total energy              =     -39.86487355 Ry
     estimated scf accuracy    <          1.4E-09 Ry

     iteration # 10     ecut=    60.00 Ry     beta= 0.70
     CG style diagonalization
     ethr =  1.71E-11,  avg # of iterations =  4.1

     negative rho (up, down):  1.264E-04 0.000E+00

     total cpu time spent up to now is        4.3 secs

     total energy              =     -39.86487356 Ry
     estimated scf accuracy    <          5.8E-10 Ry

     iteration # 11     ecut=    60.00 Ry     beta= 0.70
     CG style diagonalization
     ethr =  7.23E-12,  avg # of iterations =  3.0

     negative rho (up, down):  1.264E-04 0.000E+00

     total cpu time spent up to now is        4.6 secs

     total energy              =     -39.86487355 Ry
     estimated scf accuracy    <          3.3E-10 Ry

     iteration # 12     ecut=    60.00 Ry     beta= 0.70
     CG style diagonalization
     ethr =  4.15E-12,  avg # of iterations =  3.5

     negative rho (up, down):  1.264E-04 0.000E+00

     total cpu time spent up to now is        4.8 secs

     total energy              =     -39.86487356 Ry
     estimated scf accuracy    <          2.2E-11 Ry

     iteration # 13     ecut=    60.00 Ry     beta= 0.70
     CG style diagonalization
     ethr =  2.79E-13,  avg # of iterations =  3.1

     negative rho (up, down):  1.264E-04 0.000E+00

     total cpu time spent up to now is        5.0 secs

     total energy              =     -39.86487356 Ry
     estimated scf accuracy    <          8.7E-12 Ry

     iteration # 14     ecut=    60.00 Ry     beta= 0.70
     CG style diagonalization
     ethr =  1.09E-13,  avg # of iterations =  3.4

     negative rho (up, down):  1.264E-04 0.000E+00

     total cpu time spent up to now is        5.3 secs

     End of self-consistent calculation

          k = 0.0000 0.0000 0.0000 (  4323 PWs)   bands (ev):

   -23.4232 -11.0108  -7.1696  -7.1695  -1.1150  -0.1197   1.4323   2.4022

          k = 0.0000 0.1925 0.0000 (  4320 PWs)   bands (ev):

   -22.9011 -10.3072  -9.1318  -8.0492  -0.2274   0.6960   2.3103   3.0890

          k = 0.0000 0.3850 0.0000 (  4368 PWs)   bands (ev):

   -21.5002 -12.6746  -9.3950  -8.3808   1.1888   2.2144   3.6321   4.3534

          k = 0.0000-0.5776 0.0000 (  4340 PWs)   bands (ev):

   -20.3736 -14.6685  -9.9444  -6.7161  -1.0324   3.8516   6.6151   7.0736

          k = 0.1667 0.0963 0.0000 (  4320 PWs)   bands (ev):

   -22.9011 -10.3072  -9.1318  -8.0492  -0.2274   0.6960   2.3103   3.0889

          k = 0.1667 0.2888 0.0000 (  4360 PWs)   bands (ev):

   -21.9263 -11.3270  -9.7312  -8.9768   1.4899   1.8124   3.2035   4.0364

          k = 0.1667 0.4813 0.0000 (  4368 PWs)   bands (ev):

   -20.4639 -13.8485 -11.1141  -6.8764  -0.3645   4.6688   5.8903   6.4776

          k = 0.1667-0.4813 0.0000 (  4368 PWs)   bands (ev):

   -20.4639 -13.8485 -11.1141  -6.8764  -0.3645   4.6688   5.8903   6.4776

          k = 0.1667-0.2888 0.0000 (  4360 PWs)   bands (ev):

   -21.9263 -11.3270  -9.7312  -8.9768   1.4899   1.8125   3.2035   4.0364

          k = 0.1667-0.0963 0.0000 (  4320 PWs)   bands (ev):

   -22.9011 -10.3072  -9.1317  -8.0493  -0.2274   0.6960   2.3103   3.0889

          k = 0.3335 0.1925 0.0000 (  4368 PWs)   bands (ev):

   -21.5002 -12.6746  -9.3950  -8.3808   1.1888   2.2144   3.6321   4.3534

          k = 0.3335 0.3850 0.0000 (  4368 PWs)   bands (ev):

   -20.4639 -13.8485 -11.1141  -6.8764  -0.3645   4.6688   5.8903   6.4776

          k = 0.3335 0.5776 0.0000 (  4380 PWs)   bands (ev):

   -19.8021 -13.6703 -12.9767  -5.8200  -1.1570   6.5432   7.4464   9.2830

          k = 0.3335-0.3850 0.0000 (  4368 PWs)   bands (ev):

   -20.4639 -13.8484 -11.1141  -6.8764  -0.3645   4.6688   5.8903   6.4776

          k = 0.3335-0.1925 0.0000 (  4368 PWs)   bands (ev):

   -21.5002 -12.6746  -9.3950  -8.3808   1.1888   2.2144   3.6322   4.3534

          k = 0.3335-0.0000 0.0000 (  4360 PWs)   bands (ev):

   -21.9263 -11.3270  -9.7312  -8.9768   1.4899   1.8125   3.2035   4.0364

          k =-0.5002-0.2888 0.0000 (  4340 PWs)   bands (ev):

   -20.3736 -14.6685  -9.9444  -6.7161  -1.0324   3.8516   6.6151   7.0736

          k =-0.5002-0.0963 0.0000 (  4368 PWs)   bands (ev):

   -20.4639 -13.8485 -11.1141  -6.8764  -0.3645   4.6688   5.8903   6.4776

          k =-0.5002 0.0963 0.0000 (  4368 PWs)   bands (ev):

   -20.4639 -13.8484 -11.1141  -6.8764  -0.3645   4.6688   5.8903   6.4776

          k =-0.5002-0.8663 0.0000 (  4340 PWs)   bands (ev):

   -20.3736 -14.6685  -9.9445  -6.7161  -1.0323   3.8516   6.6152   7.0736

     the Fermi energy is    -2.6417 ev

!    total energy              =     -39.86487356 Ry

     total all-electron energy =      -159.403019 Ry
     estimated scf accuracy    <          4.7E-14 Ry
     smearing contrib. (-TS)   =       0.00000000 Ry
     internal energy E=F+TS    =     -39.86487356 Ry

     The total energy is F=E-TS. E is the sum of the following terms:
     one-electron contribution =    -249.89874196 Ry
     hartree contribution      =     126.20384611 Ry
     xc contribution           =      -8.80385727 Ry
     ewald contribution        =     105.81411056 Ry
     one-center paw contrib.   =     -13.18023100 Ry

     convergence has been achieved in  14 iterations

     negative rho (up, down):  1.264E-04 0.000E+00

     Forces acting on atoms (cartesian axes, Ry/au):

     atom    1 type  1   force =     0.00000396   -0.00000229    0.00000001
     atom    2 type  2   force =    -0.00000396    0.00000229   -0.00000001

     Total force =     0.000006     Total SCF correction =     0.000000


     Computing stress (Cartesian axis) and pressure


     negative rho (up, down):  1.264E-04 0.000E+00
          total   stress  (Ry/bohr**3)                   (kbar)     P=       -0.18
   0.00000000   0.00000000  -0.00000000            0.00        0.00       -0.00
   0.00000000   0.00000001   0.00000000            0.00        0.00        0.00
  -0.00000000   0.00000000  -0.00000374           -0.00        0.00       -0.55


     Writing output data file ./TMP_DIR/hBN.save/
 
     init_run     :      0.27s CPU      0.39s WALL (       1 calls)
     electrons    :      3.55s CPU      3.89s WALL (       1 calls)
     forces       :      0.10s CPU      0.10s WALL (       1 calls)
     stress       :      0.22s CPU      0.22s WALL (       1 calls)

     Called by init_run:
     wfcinit      :      0.09s CPU      0.16s WALL (       1 calls)
     potinit      :      0.06s CPU      0.07s WALL (       1 calls)
     hinit0       :      0.09s CPU      0.10s WALL (       1 calls)

     Called by electrons:
     c_bands      :      2.95s CPU      3.14s WALL (      14 calls)
     sum_band     :      0.30s CPU      0.32s WALL (      14 calls)
     v_of_rho     :      0.09s CPU      0.09s WALL (      15 calls)
     newd         :      0.05s CPU      0.09s WALL (      15 calls)
     PAW_pot      :      0.14s CPU      0.16s WALL (      15 calls)
     mix_rho      :      0.02s CPU      0.02s WALL (      14 calls)

     Called by c_bands:
     init_us_2    :      0.02s CPU      0.02s WALL (     620 calls)
     ccgdiagg     :      2.03s CPU      2.14s WALL (     280 calls)
     wfcrot       :      0.97s CPU      1.07s WALL (     280 calls)

     Called by *cgdiagg:
     h_psi        :      1.84s CPU      1.95s WALL (    6534 calls)
     s_psi        :      0.04s CPU      0.05s WALL (   12788 calls)

     Called by h_psi:
     h_psi:calbec :      0.26s CPU      0.28s WALL (    6534 calls)
     vloc_psi     :      1.50s CPU      1.59s WALL (    6534 calls)
     add_vuspsi   :      0.03s CPU      0.03s WALL (    6534 calls)
     hs_1psi      :      1.46s CPU      1.54s WALL (    6254 calls)
     s_1psi       :      0.16s CPU      0.17s WALL (    6254 calls)

     General routines
     calbec       :      0.37s CPU      0.40s WALL (   13168 calls)
     fft          :      0.09s CPU      0.09s WALL (     218 calls)
     ffts         :      0.00s CPU      0.00s WALL (      29 calls)
     fftw         :      1.62s CPU      1.72s WALL (   19228 calls)
     interpolate  :      0.01s CPU      0.01s WALL (      15 calls)
 
     Parallel routines
 
     PWSCF        :      4.36s CPU      7.37s WALL

 
   This run was terminated on:  18: 9:29  15Dec2022            

=------------------------------------------------------------------------------=
   JOB DONE.
=------------------------------------------------------------------------------=
