
     Program MATDYN v.6.8 starts on 15Dec2022 at 19:49:29 

     This program is part of the open-source Quantum ESPRESSO suite
     for quantum simulation of materials; please cite
         "P. Giannozzi et al., J. Phys.:Condens. Matter 21 395502 (2009);
         "P. Giannozzi et al., J. Phys.:Condens. Matter 29 465901 (2017);
         "P. Giannozzi et al., J. Chem. Phys. 152 154105 (2020);
          URL http://www.quantum-espresso.org", 
     in publications or presentations arising from this work. More details at
     http://www.quantum-espresso.org/quote

     Parallel version (MPI & OpenMP), running on      64 processor cores
     Number of MPI processes:                64
     Threads/MPI process:                     1

     MPI processes distributed on     2 nodes
     R & G space division:  proc/nbgrp/npool/nimage =      64
     140525 MiB available memory on the printing compute node when the environment starts
 
 mass for atomic type   1 not given; uses mass from file hBN.fc                                                                                                                                                                                                                                                          
 mass for atomic type   2 not given; uses mass from file hBN.fc                                                                                                                                                                                                                                                          
     Message from routine matdyn:
     Z* not found in file hBN.fc, TO-LO splitting at q=0 will be absent!
     Message from routine matdyn:
     Z* not found in file hBN.fc, TO-LO splitting at q=0 will be absent!
 
     MATDYN       :      0.07s CPU      4.03s WALL

 
   This run was terminated on:  19:49:33  15Dec2022            

=------------------------------------------------------------------------------=
   JOB DONE.
=------------------------------------------------------------------------------=
