
     Program PHONON v.6.8 starts on 15Dec2022 at 18:24:55 

     This program is part of the open-source Quantum ESPRESSO suite
     for quantum simulation of materials; please cite
         "P. Giannozzi et al., J. Phys.:Condens. Matter 21 395502 (2009);
         "P. Giannozzi et al., J. Phys.:Condens. Matter 29 465901 (2017);
         "P. Giannozzi et al., J. Chem. Phys. 152 154105 (2020);
          URL http://www.quantum-espresso.org", 
     in publications or presentations arising from this work. More details at
     http://www.quantum-espresso.org/quote

     Parallel version (MPI & OpenMP), running on      64 processor cores
     Number of MPI processes:                64
     Threads/MPI process:                     1

     MPI processes distributed on     2 nodes
     R & G space division:  proc/nbgrp/npool/nimage =      64
     176587 MiB available memory on the printing compute node when the environment starts
 
     Waiting for input...
     Reading input from standard input
     Run is not recoverable starting from scratch

     Reading xml data from directory:

     ./TMP_DIR/hBN.save/
     file N.pbe-n-kjpaw_psl.1.0.0.UPF: wavefunction(s)  2S renormalized

     IMPORTANT: XC functional enforced from input :
     Exchange-correlation= PBE
                           (   1   4   3   4   0   0   0)
     Any further DFT definition will be discarded
     Please, verify this is what you really want

 
     Parallelization info
     --------------------
     sticks:   dense  smooth     PW     G-vecs:    dense   smooth      PW
     Min          12       5      1                 1616      519      81
     Max          13       6      2                 1641      558     118
     Sum         769     367    121               104505    34753    6945
 
     Using Slab Decomposition
 
 ----2D----2D----2D----2D----2D----2D----2D----2D----2D----2D----2D----2D
  The code is running with the 2D cutoff
  Please refer to:
  Sohier, T., Calandra, M., & Mauri, F. (2017), 
  Density functional perturbation theory for gated two-dimensional heterostructu
 res:
  Theoretical developments and application to flexural phonons in graphene.
  Physical Review B, 96(7), 75448. https://doi.org/10.1103/PhysRevB.96.075448
 ----2D----2D----2D----2D----2D----2D----2D----2D----2D----2D----2D----2D

     negative rho (up, down):  1.264E-04 0.000E+00
     Reading collected, re-writing distributed wavefunctions


     Dynamical matrices for ( 6, 6, 1)  uniform grid of q-points
     (  20 q-points):
       N         xq(1)         xq(2)         xq(3) 
       1   0.000000000   0.000000000   0.000000000
       2   0.000000000   0.192518373   0.000000000
       3   0.000000000   0.385036746   0.000000000
       4   0.000000000  -0.577555120   0.000000000
       5   0.166725802   0.096259187   0.000000000
       6   0.166725802   0.288777560   0.000000000
       7   0.166725802   0.481295933   0.000000000
       8   0.166725802  -0.481295933   0.000000000
       9   0.166725802  -0.288777560   0.000000000
      10   0.166725802  -0.096259187   0.000000000
      11   0.333451604   0.192518373   0.000000000
      12   0.333451604   0.385036746   0.000000000
      13   0.333451604   0.577555120   0.000000000
      14   0.333451604  -0.385036747   0.000000000
      15   0.333451604  -0.192518373   0.000000000
      16   0.333451604  -0.000000000   0.000000000
      17  -0.500177405  -0.288777560   0.000000000
      18  -0.500177405  -0.096259186   0.000000000
      19  -0.500177405   0.096259187   0.000000000
      20  -0.500177405  -0.866332679   0.000000000

     Saving dvscf to file. Distribute only q points, not irreducible represetations.

     Calculation of q =    0.0000000   0.0000000   0.0000000

     Phonon dispersions for hBN                                                 

     bravais-lattice index     =            0
     lattice parameter (alat)  =       4.7540  a.u.
     unit-cell volume          =     554.4197 (a.u.)^3
     number of atoms/cell      =            2
     number of atomic types    =            2
     kinetic-energy cut-off    =      60.0000  Ry
     charge density cut-off    =     500.0000  Ry
     convergence threshold     =      1.0E-16
     beta                      =       0.1000
     number of iterations used =            4
     Exchange-correlation= PBE
                           (   1   4   3   4   0   0   0)


     celldm(1)=    4.75404  celldm(2)=    0.00000  celldm(3)=    0.00000
     celldm(4)=    0.00000  celldm(5)=    0.00000  celldm(6)=    0.00000

     crystal axes: (cart. coord. in units of alat)
               a(1) = (  0.9996  0.0000  0.0000 )  
               a(2) = ( -0.4998  0.8657  0.0000 )  
               a(3) = (  0.0000  0.0000  5.9625 )  

     reciprocal axes: (cart. coord. in units 2 pi/alat)
               b(1) = (  1.0004  0.5776  0.0000 )  
               b(2) = (  0.0000  1.1551  0.0000 )  
               b(3) = (  0.0000  0.0000  0.1677 )  


     Atoms inside the unit cell: 

     Cartesian axes

     site n.  atom      mass           positions (alat units)
        1     B   10.8110   tau(    1) = (   -0.00000    0.57715    2.98124  )
        2     N   14.0067   tau(    2) = (    0.49982    0.28857    2.98124  )

     Computing dynamical matrix for 
                    q = (   0.0000000   0.0000000   0.0000000 )
 
      2 Sym.Ops. (with q -> -q+G )


     G cutoff =  286.2440  (   1638 G-vectors)     FFT grid: ( 36, 36,216)
     G cutoff =  137.3971  (    558 G-vectors)  smooth grid: ( 24, 24,144)

     number of k points=    20  Methfessel-Paxton smearing, width (Ry)=  0.0100

     PseudoPot. # 1 for B  read from file:
     ./pseudo/B.pbe-n-kjpaw_psl.1.0.0.UPF
     MD5 check sum: 8c825a5969375aca5c2c6ad5945b3059
     Pseudo is Projector augmented-wave + core cor, Zval =  3.0
     Generated using &quot;atomic&quot; code by A. Dal Corso  v.6.3
     Shape of augmentation charge: PSQ
     Using radial grid of 1059 points,  4 beta functions with: 
                l(1) =   0
                l(2) =   0
                l(3) =   1
                l(4) =   1
     Q(r) pseudized with 0 coefficients 


     PseudoPot. # 2 for N  read from file:
     ./pseudo/N.pbe-n-kjpaw_psl.1.0.0.UPF
     MD5 check sum: 14c48229446f9f2d411169a3abcbc3fa
     Pseudo is Projector augmented-wave + core cor, Zval =  5.0
     Generated using &quot;atomic&quot; code by A. Dal Corso  v.6.3
     Shape of augmentation charge: PSQ
     Using radial grid of 1085 points,  4 beta functions with: 
                l(1) =   0
                l(2) =   0
                l(3) =   1
                l(4) =   1
     Q(r) pseudized with 0 coefficients 


     Mode symmetry, C_1 (1)     point group:


     Atomic displacements:
     There are    6 irreducible representations

     Representation     1      1 modes -  To be done

     Representation     2      1 modes -  To be done

     Representation     3      1 modes -  To be done

     Representation     4      1 modes -  To be done

     Representation     5      1 modes -  To be done

     Representation     6      1 modes -  To be done



     Alpha used in Ewald sum =   2.8000

     negative rho (up, down):  1.264E-04 0.000E+00
     PHONON       :      4.39s CPU     19.09s WALL



     Representation #   1 mode #   1

     Self-consistent Calculation
 
     Pert. #  1: Fermi energy shift (Ry) =    -1.6882E+76    -2.5711E+61

      iter #   1 total cpu time :    19.7 secs   av.it.:   5.0
      thresh= 1.000E-02 alpha_mix =  0.100 |ddv_scf|^2 =  1.310E-07
 
     Pert. #  1: Fermi energy shift (Ry) =    -2.5746E+73    -2.0087E+59

      iter #   2 total cpu time :    20.7 secs   av.it.:   7.8
      thresh= 3.619E-05 alpha_mix =  0.100 |ddv_scf|^2 =  1.060E-07
 
     Pert. #  1: Fermi energy shift (Ry) =    -2.3229E+73    -2.0087E+59

      iter #   3 total cpu time :    22.1 secs   av.it.:   9.4
      thresh= 3.255E-05 alpha_mix =  0.100 |ddv_scf|^2 =  3.548E-10
 
     Pert. #  1: Fermi energy shift (Ry) =    -6.0843E+72    -2.5108E+58

      iter #   4 total cpu time :    22.9 secs   av.it.:   8.3
      thresh= 1.884E-06 alpha_mix =  0.100 |ddv_scf|^2 =  3.939E-10
 
     Pert. #  1: Fermi energy shift (Ry) =     8.4572E+72     6.2771E+57

      iter #   5 total cpu time :    24.7 secs   av.it.:  11.1
      thresh= 1.985E-06 alpha_mix =  0.100 |ddv_scf|^2 =  1.232E-12
 
     Pert. #  1: Fermi energy shift (Ry) =    -6.9049E+71     1.9616E+56

      iter #   6 total cpu time :    25.5 secs   av.it.:   9.6
      thresh= 1.110E-07 alpha_mix =  0.100 |ddv_scf|^2 =  6.765E-13
 
     Pert. #  1: Fermi energy shift (Ry) =     3.6462E+70     1.9616E+56

      iter #   7 total cpu time :    26.5 secs   av.it.:  11.2
      thresh= 8.225E-08 alpha_mix =  0.100 |ddv_scf|^2 =  9.133E-15
 
     Pert. #  1: Fermi energy shift (Ry) =    -1.8705E+70     3.9232E+56

      iter #   8 total cpu time :    27.2 secs   av.it.:  10.1
      thresh= 9.557E-09 alpha_mix =  0.100 |ddv_scf|^2 =  1.921E-15
 
     Pert. #  1: Fermi energy shift (Ry) =    -4.5771E+70     3.9232E+56

      iter #   9 total cpu time :    27.9 secs   av.it.:  10.7
      thresh= 4.383E-09 alpha_mix =  0.100 |ddv_scf|^2 =  1.068E-17

     End of self-consistent calculation

     Convergence has been achieved 


     Representation #   2 mode #   2

     Self-consistent Calculation
 
     Pert. #  1: Fermi energy shift (Ry) =     2.8191E+77     0.0000E+00

      iter #   1 total cpu time :    30.2 secs   av.it.:   5.0
      thresh= 1.000E-02 alpha_mix =  0.100 |ddv_scf|^2 =  1.347E-07
 
     Pert. #  1: Fermi energy shift (Ry) =    -7.2073E+74     0.0000E+00

      iter #   2 total cpu time :    31.0 secs   av.it.:   7.6
      thresh= 3.670E-05 alpha_mix =  0.100 |ddv_scf|^2 =  1.090E-07
 
     Pert. #  1: Fermi energy shift (Ry) =    -1.0012E+75     0.0000E+00

      iter #   3 total cpu time :    31.9 secs   av.it.:   9.6
      thresh= 3.301E-05 alpha_mix =  0.100 |ddv_scf|^2 =  3.532E-10
 
     Pert. #  1: Fermi energy shift (Ry) =    -2.9106E+73     0.0000E+00

      iter #   4 total cpu time :    32.8 secs   av.it.:   7.7
      thresh= 1.879E-06 alpha_mix =  0.100 |ddv_scf|^2 =  3.795E-10
 
     Pert. #  1: Fermi energy shift (Ry) =    -1.6067E+72     0.0000E+00

      iter #   5 total cpu time :    34.0 secs   av.it.:  11.2
      thresh= 1.948E-06 alpha_mix =  0.100 |ddv_scf|^2 =  1.173E-12
 
     Pert. #  1: Fermi energy shift (Ry) =     1.0208E+72     0.0000E+00

      iter #   6 total cpu time :    34.7 secs   av.it.:   9.8
      thresh= 1.083E-07 alpha_mix =  0.100 |ddv_scf|^2 =  6.165E-13
 
     Pert. #  1: Fermi energy shift (Ry) =    -2.0086E+72     0.0000E+00

      iter #   7 total cpu time :    35.8 secs   av.it.:  11.2
      thresh= 7.852E-08 alpha_mix =  0.100 |ddv_scf|^2 =  9.082E-15
 
     Pert. #  1: Fermi energy shift (Ry) =     3.0806E+71     0.0000E+00

      iter #   8 total cpu time :    38.4 secs   av.it.:  10.1
      thresh= 9.530E-09 alpha_mix =  0.100 |ddv_scf|^2 =  1.856E-15
 
     Pert. #  1: Fermi energy shift (Ry) =     1.2017E+71     0.0000E+00

      iter #   9 total cpu time :    39.4 secs   av.it.:  10.6
      thresh= 4.308E-09 alpha_mix =  0.100 |ddv_scf|^2 =  9.922E-18

     End of self-consistent calculation

     Convergence has been achieved 


     Representation #   3 mode #   3

     Self-consistent Calculation
 
     Pert. #  1: Fermi energy shift (Ry) =     1.2523E+73     0.0000E+00

      iter #   1 total cpu time :    41.0 secs   av.it.:   5.6
      thresh= 1.000E-02 alpha_mix =  0.100 |ddv_scf|^2 =  1.503E-05
 
     Pert. #  1: Fermi energy shift (Ry) =     1.0653E+73     0.0000E+00

      iter #   2 total cpu time :    41.6 secs   av.it.:   7.2
      thresh= 3.877E-04 alpha_mix =  0.100 |ddv_scf|^2 =  7.269E-06
 
     Pert. #  1: Fermi energy shift (Ry) =     5.1907E+72     0.0000E+00

      iter #   3 total cpu time :    42.3 secs   av.it.:   8.1
      thresh= 2.696E-04 alpha_mix =  0.100 |ddv_scf|^2 =  6.671E-08
 
     Pert. #  1: Fermi energy shift (Ry) =     4.9431E+72     0.0000E+00

      iter #   4 total cpu time :    42.8 secs   av.it.:   7.4
      thresh= 2.583E-05 alpha_mix =  0.100 |ddv_scf|^2 =  2.640E-08
 
     Pert. #  1: Fermi energy shift (Ry) =     5.0284E+72     0.0000E+00

      iter #   5 total cpu time :    43.8 secs   av.it.:   7.0
      thresh= 1.625E-05 alpha_mix =  0.100 |ddv_scf|^2 =  9.838E-12
 
     Pert. #  1: Fermi energy shift (Ry) =     5.0283E+72     0.0000E+00

      iter #   6 total cpu time :    44.6 secs   av.it.:   7.5
      thresh= 3.137E-07 alpha_mix =  0.100 |ddv_scf|^2 =  7.580E-12
 
     Pert. #  1: Fermi energy shift (Ry) =     5.0194E+72     0.0000E+00

      iter #   7 total cpu time :    46.0 secs   av.it.:   9.5
      thresh= 2.753E-07 alpha_mix =  0.100 |ddv_scf|^2 =  2.516E-13
 
     Pert. #  1: Fermi energy shift (Ry) =     5.0244E+72     0.0000E+00

      iter #   8 total cpu time :    47.1 secs   av.it.:   8.5
      thresh= 5.016E-08 alpha_mix =  0.100 |ddv_scf|^2 =  8.145E-14
 
     Pert. #  1: Fermi energy shift (Ry) =     5.0260E+72     0.0000E+00

      iter #   9 total cpu time :    47.6 secs   av.it.:   9.5
      thresh= 2.854E-08 alpha_mix =  0.100 |ddv_scf|^2 =  3.457E-16
 
     Pert. #  1: Fermi energy shift (Ry) =     5.0234E+72     0.0000E+00

      iter #  10 total cpu time :    48.0 secs   av.it.:   7.6
      thresh= 1.859E-09 alpha_mix =  0.100 |ddv_scf|^2 =  2.574E-16
 
     Pert. #  1: Fermi energy shift (Ry) =     5.0228E+72     0.0000E+00

      iter #  11 total cpu time :    51.3 secs   av.it.:   8.5
      thresh= 1.604E-09 alpha_mix =  0.100 |ddv_scf|^2 =  1.570E-16
 
     Pert. #  1: Fermi energy shift (Ry) =     5.0247E+72     0.0000E+00

      iter #  12 total cpu time :    52.8 secs   av.it.:   8.8
      thresh= 1.253E-09 alpha_mix =  0.100 |ddv_scf|^2 =  2.988E-17

     End of self-consistent calculation

     Convergence has been achieved 


     Representation #   4 mode #   4

     Self-consistent Calculation
 
     Pert. #  1: Fermi energy shift (Ry) =    -1.7320E+76     5.1422E+61

      iter #   1 total cpu time :    56.4 secs   av.it.:   5.9
      thresh= 1.000E-02 alpha_mix =  0.100 |ddv_scf|^2 =  8.777E-08
 
     Pert. #  1: Fermi energy shift (Ry) =     2.6160E+73     4.0173E+59

      iter #   2 total cpu time :    57.1 secs   av.it.:   9.3
      thresh= 2.963E-05 alpha_mix =  0.100 |ddv_scf|^2 =  6.458E-08
 
     Pert. #  1: Fermi energy shift (Ry) =    -6.9341E+73     1.0043E+59

      iter #   3 total cpu time :    57.6 secs   av.it.:  11.2
      thresh= 2.541E-05 alpha_mix =  0.100 |ddv_scf|^2 =  3.268E-10
 
     Pert. #  1: Fermi energy shift (Ry) =     1.1582E+72     1.2554E+58

      iter #   4 total cpu time :    58.0 secs   av.it.:   9.9
      thresh= 1.808E-06 alpha_mix =  0.100 |ddv_scf|^2 =  1.916E-10
 
     Pert. #  1: Fermi energy shift (Ry) =     4.6903E+72    -1.5693E+57

      iter #   5 total cpu time :    60.7 secs   av.it.:  10.4
      thresh= 1.384E-06 alpha_mix =  0.100 |ddv_scf|^2 =  2.356E-12
 
     Pert. #  1: Fermi energy shift (Ry) =    -1.5995E+72    -1.5693E+57

      iter #   6 total cpu time :    61.8 secs   av.it.:   9.8
      thresh= 1.535E-07 alpha_mix =  0.100 |ddv_scf|^2 =  1.040E-12
 
     Pert. #  1: Fermi energy shift (Ry) =    -1.3580E+69    -1.5693E+57

      iter #   7 total cpu time :    62.9 secs   av.it.:  10.5
      thresh= 1.020E-07 alpha_mix =  0.100 |ddv_scf|^2 =  7.979E-15
 
     Pert. #  1: Fermi energy shift (Ry) =     4.5064E+71    -1.5693E+57

      iter #   8 total cpu time :    63.7 secs   av.it.:  10.3
      thresh= 8.932E-09 alpha_mix =  0.100 |ddv_scf|^2 =  2.677E-15
 
     Pert. #  1: Fermi energy shift (Ry) =     4.6249E+71    -1.5693E+57

      iter #   9 total cpu time :    64.4 secs   av.it.:  11.2
      thresh= 5.174E-09 alpha_mix =  0.100 |ddv_scf|^2 =  1.785E-17

     End of self-consistent calculation

     Convergence has been achieved 


     Representation #   5 mode #   5

     Self-consistent Calculation
 
     Pert. #  1: Fermi energy shift (Ry) =     3.2716E+77     0.0000E+00

      iter #   1 total cpu time :    66.7 secs   av.it.:   6.0
      thresh= 1.000E-02 alpha_mix =  0.100 |ddv_scf|^2 =  8.787E-08
 
     Pert. #  1: Fermi energy shift (Ry) =     5.5537E+74     0.0000E+00

      iter #   2 total cpu time :    67.2 secs   av.it.:   9.4
      thresh= 2.964E-05 alpha_mix =  0.100 |ddv_scf|^2 =  6.468E-08
 
     Pert. #  1: Fermi energy shift (Ry) =    -2.7813E+73     0.0000E+00

      iter #   3 total cpu time :    67.8 secs   av.it.:  11.1
      thresh= 2.543E-05 alpha_mix =  0.100 |ddv_scf|^2 =  3.301E-10
 
     Pert. #  1: Fermi energy shift (Ry) =     6.7928E+73     0.0000E+00

      iter #   4 total cpu time :    68.6 secs   av.it.:   9.9
      thresh= 1.817E-06 alpha_mix =  0.100 |ddv_scf|^2 =  1.901E-10
 
     Pert. #  1: Fermi energy shift (Ry) =     9.0809E+72     0.0000E+00

      iter #   5 total cpu time :    70.3 secs   av.it.:  10.7
      thresh= 1.379E-06 alpha_mix =  0.100 |ddv_scf|^2 =  2.342E-12
 
     Pert. #  1: Fermi energy shift (Ry) =    -4.2268E+72     0.0000E+00

      iter #   6 total cpu time :    71.6 secs   av.it.:   9.9
      thresh= 1.530E-07 alpha_mix =  0.100 |ddv_scf|^2 =  9.463E-13
 
     Pert. #  1: Fermi energy shift (Ry) =    -3.7557E+72     0.0000E+00

      iter #   7 total cpu time :    72.5 secs   av.it.:  10.6
      thresh= 9.728E-08 alpha_mix =  0.100 |ddv_scf|^2 =  9.891E-15
 
     Pert. #  1: Fermi energy shift (Ry) =    -1.4154E+72     0.0000E+00

      iter #   8 total cpu time :    74.0 secs   av.it.:  10.4
      thresh= 9.946E-09 alpha_mix =  0.100 |ddv_scf|^2 =  2.443E-15
 
     Pert. #  1: Fermi energy shift (Ry) =    -9.4154E+71     0.0000E+00

      iter #   9 total cpu time :    75.2 secs   av.it.:  10.4
      thresh= 4.942E-09 alpha_mix =  0.100 |ddv_scf|^2 =  9.259E-16
 
     Pert. #  1: Fermi energy shift (Ry) =    -8.2965E+71     0.0000E+00

      iter #  10 total cpu time :    75.7 secs   av.it.:  11.2
      thresh= 3.043E-09 alpha_mix =  0.100 |ddv_scf|^2 =  6.831E-18

     End of self-consistent calculation

     Convergence has been achieved 


     Representation #   6 mode #   6

     Self-consistent Calculation
 
     Pert. #  1: Fermi energy shift (Ry) =     2.9269E+73     0.0000E+00

      iter #   1 total cpu time :    77.5 secs   av.it.:   6.5
      thresh= 1.000E-02 alpha_mix =  0.100 |ddv_scf|^2 =  6.769E-05
 
     Pert. #  1: Fermi energy shift (Ry) =     2.4648E+73     0.0000E+00

      iter #   2 total cpu time :    78.9 secs   av.it.:   7.3
      thresh= 8.228E-04 alpha_mix =  0.100 |ddv_scf|^2 =  3.176E-05
 
     Pert. #  1: Fermi energy shift (Ry) =     1.2406E+73     0.0000E+00

      iter #   3 total cpu time :    79.5 secs   av.it.:   8.1
      thresh= 5.636E-04 alpha_mix =  0.100 |ddv_scf|^2 =  3.388E-08
 
     Pert. #  1: Fermi energy shift (Ry) =     1.2034E+73     0.0000E+00

      iter #   4 total cpu time :    79.9 secs   av.it.:   8.1
      thresh= 1.841E-05 alpha_mix =  0.100 |ddv_scf|^2 =  2.270E-08
 
     Pert. #  1: Fermi energy shift (Ry) =     1.1442E+73     0.0000E+00

      iter #   5 total cpu time :    80.4 secs   av.it.:   9.5
      thresh= 1.507E-05 alpha_mix =  0.100 |ddv_scf|^2 =  1.320E-10
 
     Pert. #  1: Fermi energy shift (Ry) =     1.1435E+73     0.0000E+00

      iter #   6 total cpu time :    81.1 secs   av.it.:   8.3
      thresh= 1.149E-06 alpha_mix =  0.100 |ddv_scf|^2 =  8.675E-11
 
     Pert. #  1: Fermi energy shift (Ry) =     1.1428E+73     0.0000E+00

      iter #   7 total cpu time :    81.6 secs   av.it.:   9.3
      thresh= 9.314E-07 alpha_mix =  0.100 |ddv_scf|^2 =  9.123E-13
 
     Pert. #  1: Fermi energy shift (Ry) =     1.1435E+73     0.0000E+00

      iter #   8 total cpu time :    82.2 secs   av.it.:   7.9
      thresh= 9.551E-08 alpha_mix =  0.100 |ddv_scf|^2 =  3.716E-13
 
     Pert. #  1: Fermi energy shift (Ry) =     1.1435E+73     0.0000E+00

      iter #   9 total cpu time :    83.4 secs   av.it.:   9.5
      thresh= 6.096E-08 alpha_mix =  0.100 |ddv_scf|^2 =  9.197E-16
 
     Pert. #  1: Fermi energy shift (Ry) =     1.1431E+73     0.0000E+00

      iter #  10 total cpu time :    83.7 secs   av.it.:   6.9
      thresh= 3.033E-09 alpha_mix =  0.100 |ddv_scf|^2 =  7.650E-16
 
     Pert. #  1: Fermi energy shift (Ry) =     1.1425E+73     0.0000E+00

      iter #  11 total cpu time :    84.6 secs   av.it.:   9.5
      thresh= 2.766E-09 alpha_mix =  0.100 |ddv_scf|^2 =  6.483E-17

     End of self-consistent calculation

     Convergence has been achieved 
 
     Number of q in the star =    1
     List of q in the star:
          1   0.000000000   0.000000000   0.000000000

     Diagonalizing the dynamical matrix

     q = (    0.000000000   0.000000000   0.000000000 ) 

 **************************************************************************
     freq (    1) =       0.420491 [THz] =      14.026083 [cm-1]
     freq (    2) =       0.682452 [THz] =      22.764139 [cm-1]
     freq (    3) =       0.683812 [THz] =      22.809508 [cm-1]
     freq (    4) =      24.028447 [THz] =     801.502711 [cm-1]
     freq (    5) =      40.274828 [THz] =    1343.423646 [cm-1]
     freq (    6) =      40.275151 [THz] =    1343.434429 [cm-1]
 **************************************************************************

     Mode symmetry, C_1 (1)     point group:

     freq (   1-   1) =         14.0  [cm-1]   --> A               I+R
     freq (   2-   2) =         22.8  [cm-1]   --> A               I+R
     freq (   3-   3) =         22.8  [cm-1]   --> A               I+R
     freq (   4-   4) =        801.5  [cm-1]   --> A               I+R
     freq (   5-   5) =       1343.4  [cm-1]   --> A               I+R
     freq (   6-   6) =       1343.4  [cm-1]   --> A               I+R

     Calculation of q =    0.0000000   0.1925184   0.0000000

     Subspace diagonalization in iterative solution of the eigenvalue problem:
     one sub-group per band group will be used
     scalapack distributed-memory algorithm (size of sub-group:  8*  8 procs)

 
     Parallelization info
     --------------------
     sticks:   dense  smooth     PW     G-vecs:    dense   smooth      PW
     Min          12       5      1                 1616      519      79
     Max          13       6      2                 1641      558     112
     Sum         769     367    121               104505    34753    6571
 
     Using Slab Decomposition
 

     Title: 
     Phonon dispersions for hBN                                                 


     bravais-lattice index     =            0
     lattice parameter (alat)  =       4.7540  a.u.
     unit-cell volume          =     554.4197 (a.u.)^3
     number of atoms/cell      =            2
     number of atomic types    =            2
     number of electrons       =         8.00
     number of Kohn-Sham states=            8
     kinetic-energy cutoff     =      60.0000  Ry
     charge density cutoff     =     500.0000  Ry
     Exchange-correlation= PBE
                           (   1   4   3   4   0   0   0)

     celldm(1)=   4.754042  celldm(2)=   0.000000  celldm(3)=   0.000000
     celldm(4)=   0.000000  celldm(5)=   0.000000  celldm(6)=   0.000000

     crystal axes: (cart. coord. in units of alat)
               a(1) = (   0.999645   0.000000   0.000000 )  
               a(2) = (  -0.499823   0.865718   0.000000 )  
               a(3) = (   0.000000   0.000000   5.962482 )  

     reciprocal axes: (cart. coord. in units 2 pi/alat)
               b(1) = (  1.000355  0.577555  0.000000 )  
               b(2) = (  0.000000  1.155110  0.000000 )  
               b(3) = (  0.000000  0.000000  0.167715 )  


     PseudoPot. # 1 for B  read from file:
     ./pseudo/B.pbe-n-kjpaw_psl.1.0.0.UPF
     MD5 check sum: 8c825a5969375aca5c2c6ad5945b3059
     Pseudo is Projector augmented-wave + core cor, Zval =  3.0
     Generated using &quot;atomic&quot; code by A. Dal Corso  v.6.3
     Shape of augmentation charge: PSQ
     Using radial grid of 1059 points,  4 beta functions with: 
                l(1) =   0
                l(2) =   0
                l(3) =   1
                l(4) =   1
     Q(r) pseudized with 0 coefficients 


     PseudoPot. # 2 for N  read from file:
     ./pseudo/N.pbe-n-kjpaw_psl.1.0.0.UPF
     MD5 check sum: 14c48229446f9f2d411169a3abcbc3fa
     Pseudo is Projector augmented-wave + core cor, Zval =  5.0
     Generated using &quot;atomic&quot; code by A. Dal Corso  v.6.3
     Shape of augmentation charge: PSQ
     Using radial grid of 1085 points,  4 beta functions with: 
                l(1) =   0
                l(2) =   0
                l(3) =   1
                l(4) =   1
     Q(r) pseudized with 0 coefficients 


     atomic species   valence    mass     pseudopotential
        B              3.00    10.81100     B ( 1.00)
        N              5.00    14.00670     N ( 1.00)

     No symmetry found



   Cartesian axes

     site n.     atom                  positions (alat units)
         1           B   tau(   1) = (  -0.0000005   0.5771458   2.9812408  )
         2           N   tau(   2) = (   0.4998232   0.2885725   2.9812408  )

     number of k points=    72  Methfessel-Paxton smearing, width (Ry)=  0.0100
                       cart. coord. in units 2pi/alat
        k(    1) = (   0.0000000   0.0000000   0.0000000), wk =   0.0555556
        k(    2) = (   0.0000000   0.1925184   0.0000000), wk =   0.0000000
        k(    3) = (   0.0000000   0.1925184   0.0000000), wk =   0.0555556
        k(    4) = (   0.0000000   0.3850367   0.0000000), wk =   0.0000000
        k(    5) = (   0.0000000   0.3850367   0.0000000), wk =   0.0555556
        k(    6) = (   0.0000000   0.5775551   0.0000000), wk =   0.0000000
        k(    7) = (   0.0000000  -0.5775551   0.0000000), wk =   0.0555556
        k(    8) = (   0.0000000  -0.3850367   0.0000000), wk =   0.0000000
        k(    9) = (   0.1667258   0.2887776   0.0000000), wk =   0.0555556
        k(   10) = (   0.1667258   0.4812959   0.0000000), wk =   0.0000000
        k(   11) = (   0.1667258   0.4812959   0.0000000), wk =   0.0555556
        k(   12) = (   0.1667258   0.6738143   0.0000000), wk =   0.0000000
        k(   13) = (   0.3334516   0.5775551   0.0000000), wk =   0.0555556
        k(   14) = (   0.3334516   0.7700735   0.0000000), wk =   0.0000000
        k(   15) = (  -0.1667258  -0.0962592   0.0000000), wk =   0.0555556
        k(   16) = (  -0.1667258   0.0962592   0.0000000), wk =   0.0000000
        k(   17) = (   0.1667258  -0.0962592   0.0000000), wk =   0.0555556
        k(   18) = (   0.1667258   0.0962592   0.0000000), wk =   0.0000000
        k(   19) = (   0.0000000  -0.1925184   0.0000000), wk =   0.0555556
        k(   20) = (   0.0000000   0.0000000   0.0000000), wk =   0.0000000
        k(   21) = (  -0.1667258   0.0962592   0.0000000), wk =   0.0555556
        k(   22) = (  -0.1667258   0.2887776   0.0000000), wk =   0.0000000
        k(   23) = (   0.1667258   0.0962592   0.0000000), wk =   0.0555556
        k(   24) = (   0.1667258   0.2887776   0.0000000), wk =   0.0000000
        k(   25) = (  -0.3334516  -0.1925184   0.0000000), wk =   0.0555556
        k(   26) = (  -0.3334516   0.0000000   0.0000000), wk =   0.0000000
        k(   27) = (   0.3334516  -0.1925184   0.0000000), wk =   0.0555556
        k(   28) = (   0.3334516  -0.0000000   0.0000000), wk =   0.0000000
        k(   29) = (   0.0000000  -0.3850367   0.0000000), wk =   0.0555556
        k(   30) = (   0.0000000  -0.1925184   0.0000000), wk =   0.0000000
        k(   31) = (  -0.3334516   0.1925184   0.0000000), wk =   0.0555556
        k(   32) = (  -0.3334516   0.3850367   0.0000000), wk =   0.0000000
        k(   33) = (   0.3334516   0.1925184   0.0000000), wk =   0.0555556
        k(   34) = (   0.3334516   0.3850367   0.0000000), wk =   0.0000000
        k(   35) = (   0.5001774   0.2887776   0.0000000), wk =   0.0555556
        k(   36) = (   0.5001774   0.4812959   0.0000000), wk =   0.0000000
        k(   37) = (  -0.5001774   0.2887776   0.0000000), wk =   0.0555556
        k(   38) = (  -0.5001774   0.4812959   0.0000000), wk =   0.0000000
        k(   39) = (  -0.1667258   0.2887776   0.0000000), wk =   0.0555556
        k(   40) = (  -0.1667258   0.4812959   0.0000000), wk =   0.0000000
        k(   41) = (  -0.3334516   0.0000000   0.0000000), wk =   0.0555556
        k(   42) = (  -0.3334516   0.1925184   0.0000000), wk =   0.0000000
        k(   43) = (   0.1667258  -0.2887776   0.0000000), wk =   0.0555556
        k(   44) = (   0.1667258  -0.0962592   0.0000000), wk =   0.0000000
        k(   45) = (  -0.1667258  -0.2887776   0.0000000), wk =   0.0555556
        k(   46) = (  -0.1667258  -0.0962592   0.0000000), wk =   0.0000000
        k(   47) = (   0.3334516  -0.0000000   0.0000000), wk =   0.0555556
        k(   48) = (   0.3334516   0.1925184   0.0000000), wk =   0.0000000
        k(   49) = (  -0.1667258   0.4812959   0.0000000), wk =   0.0555556
        k(   50) = (  -0.1667258   0.6738143   0.0000000), wk =   0.0000000
        k(   51) = (  -0.5001774  -0.0962592   0.0000000), wk =   0.0555556
        k(   52) = (  -0.5001774   0.0962592   0.0000000), wk =   0.0000000
        k(   53) = (   0.3334516  -0.3850367   0.0000000), wk =   0.0555556
        k(   54) = (   0.3334516  -0.1925184   0.0000000), wk =   0.0000000
        k(   55) = (  -0.3334516  -0.3850367   0.0000000), wk =   0.0555556
        k(   56) = (  -0.3334516  -0.1925184   0.0000000), wk =   0.0000000
        k(   57) = (   0.5001774  -0.0962592   0.0000000), wk =   0.0555556
        k(   58) = (   0.5001774   0.0962592   0.0000000), wk =   0.0000000
        k(   59) = (  -0.1667258  -0.4812959   0.0000000), wk =   0.0555556
        k(   60) = (  -0.1667258  -0.2887776   0.0000000), wk =   0.0000000
        k(   61) = (   0.1667258  -0.4812959   0.0000000), wk =   0.0555556
        k(   62) = (   0.1667258  -0.2887776   0.0000000), wk =   0.0000000
        k(   63) = (  -0.3334516   0.3850367   0.0000000), wk =   0.0555556
        k(   64) = (  -0.3334516   0.5775551   0.0000000), wk =   0.0000000
        k(   65) = (   0.5001774   0.0962592   0.0000000), wk =   0.0555556
        k(   66) = (   0.5001774   0.2887776   0.0000000), wk =   0.0000000
        k(   67) = (   0.3334516   0.3850367   0.0000000), wk =   0.0555556
        k(   68) = (   0.3334516   0.5775551   0.0000000), wk =   0.0000000
        k(   69) = (  -0.5001774   0.0962592   0.0000000), wk =   0.0555556
        k(   70) = (  -0.5001774   0.2887776   0.0000000), wk =   0.0000000
        k(   71) = (  -0.3334516   0.5775551   0.0000000), wk =   0.0555556
        k(   72) = (  -0.3334516   0.7700735   0.0000000), wk =   0.0000000

     Dense  grid:   104505 G-vectors     FFT dimensions: (  36,  36, 216)

     Smooth grid:    34753 G-vectors     FFT dimensions: (  24,  24, 144)

     Estimated max dynamical RAM per process >       2.79 MB

     Estimated total dynamical RAM >     178.43 MB
 ----2D----2D----2D----2D----2D----2D----2D----2D----2D----2D----2D----2D
  The code is running with the 2D cutoff
  Please refer to:
  Sohier, T., Calandra, M., & Mauri, F. (2017), 
  Density functional perturbation theory for gated two-dimensional heterostructu
 res:
  Theoretical developments and application to flexural phonons in graphene.
  Physical Review B, 96(7), 75448. https://doi.org/10.1103/PhysRevB.96.075448
 ----2D----2D----2D----2D----2D----2D----2D----2D----2D----2D----2D----2D

     The potential is recalculated from file :
     ./TMP_DIR/_ph0/hBN.q_2/hBN.save/charge-density


     negative rho (up, down):  1.264E-04 0.000E+00
     Starting wfcs are    8 atomic wfcs
     Checking if some PAW data can be deallocated... 

     Band Structure Calculation
     Davidson diagonalization with overlap

     ethr =  1.25E-10,  avg # of iterations = 23.6

     total cpu time spent up to now is       10.9 secs

     End of band structure calculation

          k = 0.0000 0.0000 0.0000 (  4323 PWs)   bands (ev):

   -23.4232 -11.0107  -7.1696  -7.1695  -1.1150  -0.1197   1.4323   2.4022

          k = 0.0000 0.1925 0.0000 (  4320 PWs)   bands (ev):

   -22.9011 -10.3072  -9.1318  -8.0492  -0.2274   0.6960   2.3103   3.0889

          k = 0.0000 0.1925 0.0000 (  4320 PWs)   bands (ev):

   -22.9011 -10.3072  -9.1318  -8.0492  -0.2274   0.6960   2.3103   3.0889

          k = 0.0000 0.3850 0.0000 (  4368 PWs)   bands (ev):

   -21.5002 -12.6746  -9.3950  -8.3808   1.1888   2.2144   3.6321   4.3534

          k = 0.0000 0.3850 0.0000 (  4368 PWs)   bands (ev):

   -21.5002 -12.6746  -9.3950  -8.3808   1.1888   2.2144   3.6321   4.3534

          k = 0.0000 0.5776 0.0000 (  4340 PWs)   bands (ev):

   -20.3736 -14.6685  -9.9444  -6.7161  -1.0324   3.8516   6.6151   7.0735

          k = 0.0000-0.5776 0.0000 (  4340 PWs)   bands (ev):

   -20.3736 -14.6685  -9.9444  -6.7161  -1.0324   3.8516   6.6151   7.0735

          k = 0.0000-0.3850 0.0000 (  4368 PWs)   bands (ev):

   -21.5002 -12.6746  -9.3950  -8.3808   1.1888   2.2144   3.6321   4.3534

          k = 0.1667 0.2888 0.0000 (  4360 PWs)   bands (ev):

   -21.9263 -11.3270  -9.7312  -8.9768   1.4899   1.8124   3.2035   4.0364

          k = 0.1667 0.4813 0.0000 (  4368 PWs)   bands (ev):

   -20.4639 -13.8485 -11.1141  -6.8764  -0.3645   4.6688   5.8903   6.4776

          k = 0.1667 0.4813 0.0000 (  4368 PWs)   bands (ev):

   -20.4639 -13.8485 -11.1141  -6.8764  -0.3645   4.6688   5.8903   6.4776

          k = 0.1667 0.6738 0.0000 (  4368 PWs)   bands (ev):

   -20.4639 -13.8485 -11.1141  -6.8764  -0.3645   4.6688   5.8903   6.4776

          k = 0.3335 0.5776 0.0000 (  4380 PWs)   bands (ev):

   -19.8021 -13.6703 -12.9767  -5.8200  -1.1570   7.4464   8.7468   9.2838

          k = 0.3335 0.7701 0.0000 (  4368 PWs)   bands (ev):

   -20.4639 -13.8484 -11.1141  -6.8764  -0.3645   4.6688   5.8903   6.4776

          k =-0.1667-0.0963 0.0000 (  4320 PWs)   bands (ev):

   -22.9011 -10.3072  -9.1318  -8.0492  -0.2274   0.6960   2.3103   3.0889

          k =-0.1667 0.0963 0.0000 (  4320 PWs)   bands (ev):

   -22.9011 -10.3072  -9.1317  -8.0493  -0.2274   0.6960   2.3103   3.0889

          k = 0.1667-0.0963 0.0000 (  4320 PWs)   bands (ev):

   -22.9011 -10.3072  -9.1317  -8.0493  -0.2274   0.6960   2.3103   3.0889

          k = 0.1667 0.0963 0.0000 (  4320 PWs)   bands (ev):

   -22.9011 -10.3072  -9.1318  -8.0492  -0.2274   0.6960   2.3103   3.0889

          k = 0.0000-0.1925 0.0000 (  4320 PWs)   bands (ev):

   -22.9011 -10.3072  -9.1318  -8.0492  -0.2274   0.6960   2.3103   3.0889

          k = 0.0000 0.0000 0.0000 (  4323 PWs)   bands (ev):

   -23.4232 -11.0107  -7.1696  -7.1695  -1.1150  -0.1197   1.4323   2.4022

          k =-0.1667 0.0963 0.0000 (  4320 PWs)   bands (ev):

   -22.9011 -10.3072  -9.1317  -8.0493  -0.2274   0.6960   2.3103   3.0889

          k =-0.1667 0.2888 0.0000 (  4360 PWs)   bands (ev):

   -21.9263 -11.3270  -9.7312  -8.9768   1.4899   1.8125   3.2035   4.0364

          k = 0.1667 0.0963 0.0000 (  4320 PWs)   bands (ev):

   -22.9011 -10.3072  -9.1318  -8.0492  -0.2274   0.6960   2.3103   3.0889

          k = 0.1667 0.2888 0.0000 (  4360 PWs)   bands (ev):

   -21.9263 -11.3270  -9.7312  -8.9768   1.4899   1.8124   3.2035   4.0364

          k =-0.3335-0.1925 0.0000 (  4368 PWs)   bands (ev):

   -21.5002 -12.6746  -9.3950  -8.3808   1.1888   2.2144   3.6321   4.3534

          k =-0.3335 0.0000 0.0000 (  4360 PWs)   bands (ev):

   -21.9263 -11.3270  -9.7312  -8.9768   1.4899   1.8125   3.2035   4.0364

          k = 0.3335-0.1925 0.0000 (  4368 PWs)   bands (ev):

   -21.5002 -12.6746  -9.3950  -8.3808   1.1888   2.2144   3.6321   4.3534

          k = 0.3335-0.0000 0.0000 (  4360 PWs)   bands (ev):

   -21.9263 -11.3270  -9.7312  -8.9768   1.4899   1.8125   3.2035   4.0364

          k = 0.0000-0.3850 0.0000 (  4368 PWs)   bands (ev):

   -21.5002 -12.6746  -9.3950  -8.3808   1.1888   2.2144   3.6321   4.3534

          k = 0.0000-0.1925 0.0000 (  4320 PWs)   bands (ev):

   -22.9011 -10.3072  -9.1318  -8.0492  -0.2274   0.6960   2.3103   3.0889

          k =-0.3335 0.1925 0.0000 (  4368 PWs)   bands (ev):

   -21.5002 -12.6746  -9.3950  -8.3808   1.1888   2.2144   3.6321   4.3534

          k =-0.3335 0.3850 0.0000 (  4368 PWs)   bands (ev):

   -20.4639 -13.8484 -11.1141  -6.8764  -0.3645   4.6688   5.8903   6.4776

          k = 0.3335 0.1925 0.0000 (  4368 PWs)   bands (ev):

   -21.5002 -12.6746  -9.3950  -8.3808   1.1888   2.2144   3.6321   4.3534

          k = 0.3335 0.3850 0.0000 (  4368 PWs)   bands (ev):

   -20.4639 -13.8485 -11.1141  -6.8764  -0.3645   4.6688   5.8903   6.4776

          k = 0.5002 0.2888 0.0000 (  4340 PWs)   bands (ev):

   -20.3736 -14.6685  -9.9444  -6.7161  -1.0324   3.8516   6.6151   7.0735

          k = 0.5002 0.4813 0.0000 (  4368 PWs)   bands (ev):

   -20.4639 -13.8485 -11.1141  -6.8764  -0.3645   4.6688   5.8903   6.4776

          k =-0.5002 0.2888 0.0000 (  4340 PWs)   bands (ev):

   -20.3736 -14.6685  -9.9445  -6.7161  -1.0323   3.8516   6.6151   7.0735

          k =-0.5002 0.4813 0.0000 (  4368 PWs)   bands (ev):

   -20.4639 -13.8484 -11.1141  -6.8764  -0.3645   4.6688   5.8903   6.4776

          k =-0.1667 0.2888 0.0000 (  4360 PWs)   bands (ev):

   -21.9263 -11.3270  -9.7312  -8.9768   1.4899   1.8125   3.2035   4.0364

          k =-0.1667 0.4813 0.0000 (  4368 PWs)   bands (ev):

   -20.4639 -13.8485 -11.1141  -6.8764  -0.3645   4.6688   5.8903   6.4776

          k =-0.3335 0.0000 0.0000 (  4360 PWs)   bands (ev):

   -21.9263 -11.3270  -9.7312  -8.9768   1.4899   1.8125   3.2035   4.0364

          k =-0.3335 0.1925 0.0000 (  4368 PWs)   bands (ev):

   -21.5002 -12.6746  -9.3950  -8.3808   1.1888   2.2144   3.6321   4.3534

          k = 0.1667-0.2888 0.0000 (  4360 PWs)   bands (ev):

   -21.9263 -11.3270  -9.7312  -8.9768   1.4899   1.8125   3.2035   4.0364

          k = 0.1667-0.0963 0.0000 (  4320 PWs)   bands (ev):

   -22.9011 -10.3072  -9.1317  -8.0493  -0.2274   0.6960   2.3103   3.0889

          k =-0.1667-0.2888 0.0000 (  4360 PWs)   bands (ev):

   -21.9263 -11.3270  -9.7312  -8.9768   1.4899   1.8124   3.2035   4.0364

          k =-0.1667-0.0963 0.0000 (  4320 PWs)   bands (ev):

   -22.9011 -10.3072  -9.1318  -8.0492  -0.2274   0.6960   2.3103   3.0889

          k = 0.3335-0.0000 0.0000 (  4360 PWs)   bands (ev):

   -21.9263 -11.3270  -9.7312  -8.9768   1.4899   1.8125   3.2035   4.0364

          k = 0.3335 0.1925 0.0000 (  4368 PWs)   bands (ev):

   -21.5002 -12.6746  -9.3950  -8.3808   1.1888   2.2144   3.6321   4.3534

          k =-0.1667 0.4813 0.0000 (  4368 PWs)   bands (ev):

   -20.4639 -13.8485 -11.1141  -6.8764  -0.3645   4.6688   5.8903   6.4776

          k =-0.1667 0.6738 0.0000 (  4368 PWs)   bands (ev):

   -20.4639 -13.8485 -11.1141  -6.8764  -0.3645   4.6688   5.8903   6.4776

          k =-0.5002-0.0963 0.0000 (  4368 PWs)   bands (ev):

   -20.4639 -13.8485 -11.1141  -6.8764  -0.3645   4.6688   5.8903   6.4776

          k =-0.5002 0.0963 0.0000 (  4368 PWs)   bands (ev):

   -20.4639 -13.8484 -11.1141  -6.8764  -0.3645   4.6688   5.8903   6.4776

          k = 0.3335-0.3850 0.0000 (  4368 PWs)   bands (ev):

   -20.4639 -13.8484 -11.1141  -6.8764  -0.3645   4.6688   5.8903   6.4776

          k = 0.3335-0.1925 0.0000 (  4368 PWs)   bands (ev):

   -21.5002 -12.6746  -9.3950  -8.3808   1.1888   2.2144   3.6321   4.3534

          k =-0.3335-0.3850 0.0000 (  4368 PWs)   bands (ev):

   -20.4639 -13.8485 -11.1141  -6.8764  -0.3645   4.6688   5.8903   6.4776

          k =-0.3335-0.1925 0.0000 (  4368 PWs)   bands (ev):

   -21.5002 -12.6746  -9.3950  -8.3808   1.1888   2.2144   3.6321   4.3534

          k = 0.5002-0.0963 0.0000 (  4368 PWs)   bands (ev):

   -20.4639 -13.8484 -11.1141  -6.8764  -0.3645   4.6688   5.8903   6.4776

          k = 0.5002 0.0963 0.0000 (  4368 PWs)   bands (ev):

   -20.4639 -13.8485 -11.1141  -6.8764  -0.3645   4.6688   5.8903   6.4776

          k =-0.1667-0.4813 0.0000 (  4368 PWs)   bands (ev):

   -20.4639 -13.8485 -11.1141  -6.8764  -0.3645   4.6688   5.8903   6.4776

          k =-0.1667-0.2888 0.0000 (  4360 PWs)   bands (ev):

   -21.9263 -11.3270  -9.7312  -8.9768   1.4899   1.8124   3.2035   4.0364

          k = 0.1667-0.4813 0.0000 (  4368 PWs)   bands (ev):

   -20.4639 -13.8485 -11.1141  -6.8764  -0.3645   4.6688   5.8903   6.4776

          k = 0.1667-0.2888 0.0000 (  4360 PWs)   bands (ev):

   -21.9263 -11.3270  -9.7312  -8.9768   1.4899   1.8125   3.2035   4.0364

          k =-0.3335 0.3850 0.0000 (  4368 PWs)   bands (ev):

   -20.4639 -13.8484 -11.1141  -6.8764  -0.3645   4.6688   5.8903   6.4776

          k =-0.3335 0.5776 0.0000 (  4380 PWs)   bands (ev):

   -19.8021 -13.6703 -12.9767  -5.8200  -1.1570   7.4464   8.7468   9.2838

          k = 0.5002 0.0963 0.0000 (  4368 PWs)   bands (ev):

   -20.4639 -13.8485 -11.1141  -6.8764  -0.3645   4.6688   5.8903   6.4776

          k = 0.5002 0.2888 0.0000 (  4340 PWs)   bands (ev):

   -20.3736 -14.6685  -9.9444  -6.7161  -1.0324   3.8516   6.6151   7.0735

          k = 0.3335 0.3850 0.0000 (  4368 PWs)   bands (ev):

   -20.4639 -13.8485 -11.1141  -6.8764  -0.3645   4.6688   5.8903   6.4776

          k = 0.3335 0.5776 0.0000 (  4380 PWs)   bands (ev):

   -19.8021 -13.6703 -12.9767  -5.8200  -1.1570   7.4464   8.7468   9.2838

          k =-0.5002 0.0963 0.0000 (  4368 PWs)   bands (ev):

   -20.4639 -13.8484 -11.1141  -6.8764  -0.3645   4.6688   5.8903   6.4776

          k =-0.5002 0.2888 0.0000 (  4340 PWs)   bands (ev):

   -20.3736 -14.6685  -9.9445  -6.7161  -1.0323   3.8516   6.6151   7.0735

          k =-0.3335 0.5776 0.0000 (  4380 PWs)   bands (ev):

   -19.8021 -13.6703 -12.9767  -5.8200  -1.1570   7.4464   8.7468   9.2838

          k =-0.3335 0.7701 0.0000 (  4368 PWs)   bands (ev):

   -20.4639 -13.8485 -11.1141  -6.8764  -0.3645   4.6688   5.8903   6.4776

     the Fermi energy is    -2.6412 ev

     Writing output data file ./TMP_DIR/_ph0/hBN.q_2/hBN.save/

     Phonon dispersions for hBN                                                 

     bravais-lattice index     =            0
     lattice parameter (alat)  =       4.7540  a.u.
     unit-cell volume          =     554.4197 (a.u.)^3
     number of atoms/cell      =            2
     number of atomic types    =            2
     kinetic-energy cut-off    =      60.0000  Ry
     charge density cut-off    =     500.0000  Ry
     convergence threshold     =      1.0E-16
     beta                      =       0.1000
     number of iterations used =            4
     Exchange-correlation= PBE
                           (   1   4   3   4   0   0   0)


     celldm(1)=    4.75404  celldm(2)=    0.00000  celldm(3)=    0.00000
     celldm(4)=    0.00000  celldm(5)=    0.00000  celldm(6)=    0.00000

     crystal axes: (cart. coord. in units of alat)
               a(1) = (  0.9996  0.0000  0.0000 )  
               a(2) = ( -0.4998  0.8657  0.0000 )  
               a(3) = (  0.0000  0.0000  5.9625 )  

     reciprocal axes: (cart. coord. in units 2 pi/alat)
               b(1) = (  1.0004  0.5776  0.0000 )  
               b(2) = (  0.0000  1.1551  0.0000 )  
               b(3) = (  0.0000  0.0000  0.1677 )  


     Atoms inside the unit cell: 

     Cartesian axes

     site n.  atom      mass           positions (alat units)
        1     B   10.8110   tau(    1) = (   -0.00000    0.57715    2.98124  )
        2     N   14.0067   tau(    2) = (    0.49982    0.28857    2.98124  )

     Computing dynamical matrix for 
                    q = (   0.0000000   0.1925184   0.0000000 )
 
     No symmetry!

     G cutoff =  286.2440  (   1638 G-vectors)     FFT grid: ( 36, 36,216)
     G cutoff =  137.3971  (    558 G-vectors)  smooth grid: ( 24, 24,144)

     number of k points=    72  Methfessel-Paxton smearing, width (Ry)=  0.0100

     PseudoPot. # 1 for B  read from file:
     ./pseudo/B.pbe-n-kjpaw_psl.1.0.0.UPF
     MD5 check sum: 8c825a5969375aca5c2c6ad5945b3059
     Pseudo is Projector augmented-wave + core cor, Zval =  3.0
     Generated using &quot;atomic&quot; code by A. Dal Corso  v.6.3
     Shape of augmentation charge: PSQ
     Using radial grid of 1059 points,  4 beta functions with: 
                l(1) =   0
                l(2) =   0
                l(3) =   1
                l(4) =   1
     Q(r) pseudized with 0 coefficients 


     PseudoPot. # 2 for N  read from file:
     ./pseudo/N.pbe-n-kjpaw_psl.1.0.0.UPF
     MD5 check sum: 14c48229446f9f2d411169a3abcbc3fa
     Pseudo is Projector augmented-wave + core cor, Zval =  5.0
     Generated using &quot;atomic&quot; code by A. Dal Corso  v.6.3
     Shape of augmentation charge: PSQ
     Using radial grid of 1085 points,  4 beta functions with: 
                l(1) =   0
                l(2) =   0
                l(3) =   1
                l(4) =   1
     Q(r) pseudized with 0 coefficients 


     Mode symmetry, C_1 (1)     point group:


     Atomic displacements:
     There are    6 irreducible representations

     Representation     1      1 modes -  To be done

     Representation     2      1 modes -  To be done

     Representation     3      1 modes -  To be done

     Representation     4      1 modes -  To be done

     Representation     5      1 modes -  To be done

     Representation     6      1 modes -  To be done



     Alpha used in Ewald sum =   2.8000

     negative rho (up, down):  1.264E-04 0.000E+00
     PHONON       :   1m 8.44s CPU   1m39.19s WALL



     Representation #   1 mode #   1

     Self-consistent Calculation

      iter #   1 total cpu time :    99.8 secs   av.it.:   4.9
      thresh= 1.000E-02 alpha_mix =  0.100 |ddv_scf|^2 =  1.327E-07

      iter #   2 total cpu time :   100.6 secs   av.it.:   7.9
      thresh= 3.643E-05 alpha_mix =  0.100 |ddv_scf|^2 =  1.072E-07

      iter #   3 total cpu time :   101.2 secs   av.it.:   9.9
      thresh= 3.275E-05 alpha_mix =  0.100 |ddv_scf|^2 =  6.319E-10

      iter #   4 total cpu time :   102.3 secs   av.it.:   6.1
      thresh= 2.514E-06 alpha_mix =  0.100 |ddv_scf|^2 =  6.398E-10

      iter #   5 total cpu time :   103.2 secs   av.it.:  11.1
      thresh= 2.529E-06 alpha_mix =  0.100 |ddv_scf|^2 =  1.056E-12

      iter #   6 total cpu time :   104.5 secs   av.it.:   9.3
      thresh= 1.027E-07 alpha_mix =  0.100 |ddv_scf|^2 =  7.076E-13

      iter #   7 total cpu time :   105.2 secs   av.it.:  11.1
      thresh= 8.412E-08 alpha_mix =  0.100 |ddv_scf|^2 =  8.048E-15

      iter #   8 total cpu time :   106.0 secs   av.it.:  10.1
      thresh= 8.971E-09 alpha_mix =  0.100 |ddv_scf|^2 =  2.400E-15

      iter #   9 total cpu time :   106.6 secs   av.it.:  10.6
      thresh= 4.899E-09 alpha_mix =  0.100 |ddv_scf|^2 =  3.543E-17

     End of self-consistent calculation

     Convergence has been achieved 


     Representation #   2 mode #   2

     Self-consistent Calculation

      iter #   1 total cpu time :   108.6 secs   av.it.:   5.6
      thresh= 1.000E-02 alpha_mix =  0.100 |ddv_scf|^2 =  1.357E-06

      iter #   2 total cpu time :   109.1 secs   av.it.:   8.1
      thresh= 1.165E-04 alpha_mix =  0.100 |ddv_scf|^2 =  7.037E-07

      iter #   3 total cpu time :   109.9 secs   av.it.:   9.3
      thresh= 8.388E-05 alpha_mix =  0.100 |ddv_scf|^2 =  4.787E-08

      iter #   4 total cpu time :   110.9 secs   av.it.:   9.5
      thresh= 2.188E-05 alpha_mix =  0.100 |ddv_scf|^2 =  2.947E-09

      iter #   5 total cpu time :   112.4 secs   av.it.:   9.5
      thresh= 5.429E-06 alpha_mix =  0.100 |ddv_scf|^2 =  2.823E-10

      iter #   6 total cpu time :   113.0 secs   av.it.:  10.4
      thresh= 1.680E-06 alpha_mix =  0.100 |ddv_scf|^2 =  3.165E-11

      iter #   7 total cpu time :   113.7 secs   av.it.:   9.6
      thresh= 5.626E-07 alpha_mix =  0.100 |ddv_scf|^2 =  1.796E-11

      iter #   8 total cpu time :   114.5 secs   av.it.:  11.2
      thresh= 4.238E-07 alpha_mix =  0.100 |ddv_scf|^2 =  8.101E-14

      iter #   9 total cpu time :   115.2 secs   av.it.:   8.9
      thresh= 2.846E-08 alpha_mix =  0.100 |ddv_scf|^2 =  6.304E-14

      iter #  10 total cpu time :   115.7 secs   av.it.:  11.1
      thresh= 2.511E-08 alpha_mix =  0.100 |ddv_scf|^2 =  1.619E-15

      iter #  11 total cpu time :   116.5 secs   av.it.:   9.6
      thresh= 4.024E-09 alpha_mix =  0.100 |ddv_scf|^2 =  1.186E-15

      iter #  12 total cpu time :   118.5 secs   av.it.:  10.1
      thresh= 3.444E-09 alpha_mix =  0.100 |ddv_scf|^2 =  7.411E-16

      iter #  13 total cpu time :   119.0 secs   av.it.:  10.4
      thresh= 2.722E-09 alpha_mix =  0.100 |ddv_scf|^2 =  9.961E-17

     End of self-consistent calculation

     Convergence has been achieved 


     Representation #   3 mode #   3

     Self-consistent Calculation

      iter #   1 total cpu time :   120.4 secs   av.it.:   5.7
      thresh= 1.000E-02 alpha_mix =  0.100 |ddv_scf|^2 =  5.943E-07

      iter #   2 total cpu time :   121.2 secs   av.it.:   8.2
      thresh= 7.709E-05 alpha_mix =  0.100 |ddv_scf|^2 =  3.993E-07

      iter #   3 total cpu time :   122.2 secs   av.it.:   9.6
      thresh= 6.319E-05 alpha_mix =  0.100 |ddv_scf|^2 =  3.659E-08

      iter #   4 total cpu time :   122.7 secs   av.it.:   8.2
      thresh= 1.913E-05 alpha_mix =  0.100 |ddv_scf|^2 =  5.732E-09

      iter #   5 total cpu time :   123.2 secs   av.it.:   9.4
      thresh= 7.571E-06 alpha_mix =  0.100 |ddv_scf|^2 =  5.382E-12

      iter #   6 total cpu time :   123.7 secs   av.it.:   9.0
      thresh= 2.320E-07 alpha_mix =  0.100 |ddv_scf|^2 =  3.479E-12

      iter #   7 total cpu time :   124.3 secs   av.it.:  10.6
      thresh= 1.865E-07 alpha_mix =  0.100 |ddv_scf|^2 =  7.028E-14

      iter #   8 total cpu time :   124.9 secs   av.it.:   9.0
      thresh= 2.651E-08 alpha_mix =  0.100 |ddv_scf|^2 =  1.782E-14

      iter #   9 total cpu time :   125.6 secs   av.it.:   9.6
      thresh= 1.335E-08 alpha_mix =  0.100 |ddv_scf|^2 =  5.219E-17

     End of self-consistent calculation

     Convergence has been achieved 


     Representation #   4 mode #   4

     Self-consistent Calculation

      iter #   1 total cpu time :   128.9 secs   av.it.:   5.9
      thresh= 1.000E-02 alpha_mix =  0.100 |ddv_scf|^2 =  1.015E-07

      iter #   2 total cpu time :   131.8 secs   av.it.:   9.2
      thresh= 3.186E-05 alpha_mix =  0.100 |ddv_scf|^2 =  7.436E-08

      iter #   3 total cpu time :   132.6 secs   av.it.:  11.1
      thresh= 2.727E-05 alpha_mix =  0.100 |ddv_scf|^2 =  4.541E-10

      iter #   4 total cpu time :   133.1 secs   av.it.:   9.5
      thresh= 2.131E-06 alpha_mix =  0.100 |ddv_scf|^2 =  2.643E-10

      iter #   5 total cpu time :   133.9 secs   av.it.:  10.5
      thresh= 1.626E-06 alpha_mix =  0.100 |ddv_scf|^2 =  2.445E-12

      iter #   6 total cpu time :   141.3 secs   av.it.:   9.6
      thresh= 1.564E-07 alpha_mix =  0.100 |ddv_scf|^2 =  1.149E-12

      iter #   7 total cpu time :   144.0 secs   av.it.:  10.6
      thresh= 1.072E-07 alpha_mix =  0.100 |ddv_scf|^2 =  8.695E-15

      iter #   8 total cpu time :   145.0 secs   av.it.:  10.4
      thresh= 9.325E-09 alpha_mix =  0.100 |ddv_scf|^2 =  2.843E-15

      iter #   9 total cpu time :   146.4 secs   av.it.:  10.9
      thresh= 5.332E-09 alpha_mix =  0.100 |ddv_scf|^2 =  5.404E-16

      iter #  10 total cpu time :   147.7 secs   av.it.:  10.9
      thresh= 2.325E-09 alpha_mix =  0.100 |ddv_scf|^2 =  7.885E-18

     End of self-consistent calculation

     Convergence has been achieved 


     Representation #   5 mode #   5

     Self-consistent Calculation

      iter #   1 total cpu time :   151.6 secs   av.it.:   6.3
      thresh= 1.000E-02 alpha_mix =  0.100 |ddv_scf|^2 =  1.104E-05

      iter #   2 total cpu time :   152.9 secs   av.it.:   7.9
      thresh= 3.323E-04 alpha_mix =  0.100 |ddv_scf|^2 =  5.347E-06

      iter #   3 total cpu time :   155.2 secs   av.it.:   9.2
      thresh= 2.312E-04 alpha_mix =  0.100 |ddv_scf|^2 =  2.415E-08

      iter #   4 total cpu time :   156.8 secs   av.it.:  10.4
      thresh= 1.554E-05 alpha_mix =  0.100 |ddv_scf|^2 =  7.207E-09

      iter #   5 total cpu time :   157.3 secs   av.it.:  10.7
      thresh= 8.489E-06 alpha_mix =  0.100 |ddv_scf|^2 =  1.448E-09

      iter #   6 total cpu time :   158.2 secs   av.it.:  10.9
      thresh= 3.806E-06 alpha_mix =  0.100 |ddv_scf|^2 =  6.213E-11

      iter #   7 total cpu time :   160.8 secs   av.it.:   9.0
      thresh= 7.882E-07 alpha_mix =  0.100 |ddv_scf|^2 =  4.420E-11

      iter #   8 total cpu time :   161.6 secs   av.it.:  10.9
      thresh= 6.648E-07 alpha_mix =  0.100 |ddv_scf|^2 =  4.618E-13

      iter #   9 total cpu time :   162.2 secs   av.it.:   8.5
      thresh= 6.796E-08 alpha_mix =  0.100 |ddv_scf|^2 =  3.647E-13

      iter #  10 total cpu time :   163.1 secs   av.it.:  10.6
      thresh= 6.039E-08 alpha_mix =  0.100 |ddv_scf|^2 =  1.646E-14

      iter #  11 total cpu time :   164.5 secs   av.it.:   9.2
      thresh= 1.283E-08 alpha_mix =  0.100 |ddv_scf|^2 =  1.074E-14

      iter #  12 total cpu time :   165.5 secs   av.it.:  10.5
      thresh= 1.036E-08 alpha_mix =  0.100 |ddv_scf|^2 =  4.761E-15

      iter #  13 total cpu time :   166.4 secs   av.it.:  10.1
      thresh= 6.900E-09 alpha_mix =  0.100 |ddv_scf|^2 =  3.069E-15

      iter #  14 total cpu time :   167.3 secs   av.it.:  10.0
      thresh= 5.540E-09 alpha_mix =  0.100 |ddv_scf|^2 =  2.326E-15

      iter #  15 total cpu time :   170.4 secs   av.it.:  10.5
      thresh= 4.822E-09 alpha_mix =  0.100 |ddv_scf|^2 =  2.116E-16

      iter #  16 total cpu time :   172.5 secs   av.it.:   8.4
      thresh= 1.455E-09 alpha_mix =  0.100 |ddv_scf|^2 =  1.599E-16

      iter #  17 total cpu time :   175.0 secs   av.it.:  10.5
      thresh= 1.265E-09 alpha_mix =  0.100 |ddv_scf|^2 =  5.658E-18

     End of self-consistent calculation

     Convergence has been achieved 


     Representation #   6 mode #   6

     Self-consistent Calculation

      iter #   1 total cpu time :   179.6 secs   av.it.:   6.5
      thresh= 1.000E-02 alpha_mix =  0.100 |ddv_scf|^2 =  2.820E-06

      iter #   2 total cpu time :   180.4 secs   av.it.:   8.4
      thresh= 1.679E-04 alpha_mix =  0.100 |ddv_scf|^2 =  1.715E-06

      iter #   3 total cpu time :   181.3 secs   av.it.:   9.8
      thresh= 1.310E-04 alpha_mix =  0.100 |ddv_scf|^2 =  5.779E-09

      iter #   4 total cpu time :   182.5 secs   av.it.:   9.0
      thresh= 7.602E-06 alpha_mix =  0.100 |ddv_scf|^2 =  3.561E-09

      iter #   5 total cpu time :   183.6 secs   av.it.:  10.1
      thresh= 5.967E-06 alpha_mix =  0.100 |ddv_scf|^2 =  5.921E-11

      iter #   6 total cpu time :   186.9 secs   av.it.:   9.8
      thresh= 7.695E-07 alpha_mix =  0.100 |ddv_scf|^2 =  1.463E-11

      iter #   7 total cpu time :   190.9 secs   av.it.:  10.0
      thresh= 3.825E-07 alpha_mix =  0.100 |ddv_scf|^2 =  3.790E-13

      iter #   8 total cpu time :   191.4 secs   av.it.:   9.7
      thresh= 6.156E-08 alpha_mix =  0.100 |ddv_scf|^2 =  3.688E-14

      iter #   9 total cpu time :   192.2 secs   av.it.:  10.0
      thresh= 1.920E-08 alpha_mix =  0.100 |ddv_scf|^2 =  9.337E-17

     End of self-consistent calculation

     Convergence has been achieved 
 
     Number of q in the star =    1
     List of q in the star:
          1   0.000000000   0.192518373   0.000000000
     In addition there is the -q list: 
          1   0.000000000  -0.192518373   0.000000000

     Diagonalizing the dynamical matrix

     q = (    0.000000000   0.192518373   0.000000000 ) 

 **************************************************************************
     freq (    1) =       1.671474 [THz] =      55.754378 [cm-1]
     freq (    2) =       8.762372 [THz] =     292.281256 [cm-1]
     freq (    3) =      14.587880 [THz] =     486.599311 [cm-1]
     freq (    4) =      23.070988 [THz] =     769.565319 [cm-1]
     freq (    5) =      39.438006 [THz] =    1315.510295 [cm-1]
     freq (    6) =      45.314399 [THz] =    1511.525664 [cm-1]
 **************************************************************************

     Mode symmetry, C_1 (1)     point group:

     freq (   1-   1) =         55.8  [cm-1]   --> A                  
     freq (   2-   2) =        292.3  [cm-1]   --> A                  
     freq (   3-   3) =        486.6  [cm-1]   --> A                  
     freq (   4-   4) =        769.6  [cm-1]   --> A                  
     freq (   5-   5) =       1315.5  [cm-1]   --> A                  
     freq (   6-   6) =       1511.5  [cm-1]   --> A                  

     Calculation of q =    0.0000000   0.3850367   0.0000000
 
     Parallelization info
     --------------------
     sticks:   dense  smooth     PW     G-vecs:    dense   smooth      PW
     Min          12       5      1                 1616      519      81
     Max          13       6      2                 1641      558     118
     Sum         769     367    121               104505    34753    6959
 
     Using Slab Decomposition
 

     Title: 
     Phonon dispersions for hBN                                                 


     bravais-lattice index     =            0
     lattice parameter (alat)  =       4.7540  a.u.
     unit-cell volume          =     554.4197 (a.u.)^3
     number of atoms/cell      =            2
     number of atomic types    =            2
     number of electrons       =         8.00
     number of Kohn-Sham states=            8
     kinetic-energy cutoff     =      60.0000  Ry
     charge density cutoff     =     500.0000  Ry
     Exchange-correlation= PBE
                           (   1   4   3   4   0   0   0)

     celldm(1)=   4.754042  celldm(2)=   0.000000  celldm(3)=   0.000000
     celldm(4)=   0.000000  celldm(5)=   0.000000  celldm(6)=   0.000000

     crystal axes: (cart. coord. in units of alat)
               a(1) = (   0.999645   0.000000   0.000000 )  
               a(2) = (  -0.499823   0.865718   0.000000 )  
               a(3) = (   0.000000   0.000000   5.962482 )  

     reciprocal axes: (cart. coord. in units 2 pi/alat)
               b(1) = (  1.000355  0.577555  0.000000 )  
               b(2) = (  0.000000  1.155110  0.000000 )  
               b(3) = (  0.000000  0.000000  0.167715 )  


     PseudoPot. # 1 for B  read from file:
     ./pseudo/B.pbe-n-kjpaw_psl.1.0.0.UPF
     MD5 check sum: 8c825a5969375aca5c2c6ad5945b3059
     Pseudo is Projector augmented-wave + core cor, Zval =  3.0
     Generated using &quot;atomic&quot; code by A. Dal Corso  v.6.3
     Shape of augmentation charge: PSQ
     Using radial grid of 1059 points,  4 beta functions with: 
                l(1) =   0
                l(2) =   0
                l(3) =   1
                l(4) =   1
     Q(r) pseudized with 0 coefficients 


     PseudoPot. # 2 for N  read from file:
     ./pseudo/N.pbe-n-kjpaw_psl.1.0.0.UPF
     MD5 check sum: 14c48229446f9f2d411169a3abcbc3fa
     Pseudo is Projector augmented-wave + core cor, Zval =  5.0
     Generated using &quot;atomic&quot; code by A. Dal Corso  v.6.3
     Shape of augmentation charge: PSQ
     Using radial grid of 1085 points,  4 beta functions with: 
                l(1) =   0
                l(2) =   0
                l(3) =   1
                l(4) =   1
     Q(r) pseudized with 0 coefficients 


     atomic species   valence    mass     pseudopotential
        B              3.00    10.81100     B ( 1.00)
        N              5.00    14.00670     N ( 1.00)

     No symmetry found



   Cartesian axes

     site n.     atom                  positions (alat units)
         1           B   tau(   1) = (  -0.0000005   0.5771458   2.9812408  )
         2           N   tau(   2) = (   0.4998232   0.2885725   2.9812408  )

     number of k points=    72  Methfessel-Paxton smearing, width (Ry)=  0.0100
                       cart. coord. in units 2pi/alat
        k(    1) = (   0.0000000   0.0000000   0.0000000), wk =   0.0555556
        k(    2) = (   0.0000000   0.3850367   0.0000000), wk =   0.0000000
        k(    3) = (   0.0000000   0.1925184   0.0000000), wk =   0.0555556
        k(    4) = (   0.0000000   0.5775551   0.0000000), wk =   0.0000000
        k(    5) = (   0.0000000   0.3850367   0.0000000), wk =   0.0555556
        k(    6) = (   0.0000000   0.7700735   0.0000000), wk =   0.0000000
        k(    7) = (   0.0000000  -0.5775551   0.0000000), wk =   0.0555556
        k(    8) = (   0.0000000  -0.1925184   0.0000000), wk =   0.0000000
        k(    9) = (   0.1667258   0.2887776   0.0000000), wk =   0.0555556
        k(   10) = (   0.1667258   0.6738143   0.0000000), wk =   0.0000000
        k(   11) = (   0.1667258   0.4812959   0.0000000), wk =   0.0555556
        k(   12) = (   0.1667258   0.8663327   0.0000000), wk =   0.0000000
        k(   13) = (   0.3334516   0.5775551   0.0000000), wk =   0.0555556
        k(   14) = (   0.3334516   0.9625919   0.0000000), wk =   0.0000000
        k(   15) = (  -0.1667258  -0.0962592   0.0000000), wk =   0.0555556
        k(   16) = (  -0.1667258   0.2887776   0.0000000), wk =   0.0000000
        k(   17) = (   0.1667258  -0.0962592   0.0000000), wk =   0.0555556
        k(   18) = (   0.1667258   0.2887776   0.0000000), wk =   0.0000000
        k(   19) = (   0.0000000  -0.1925184   0.0000000), wk =   0.0555556
        k(   20) = (   0.0000000   0.1925184   0.0000000), wk =   0.0000000
        k(   21) = (  -0.1667258   0.0962592   0.0000000), wk =   0.0555556
        k(   22) = (  -0.1667258   0.4812959   0.0000000), wk =   0.0000000
        k(   23) = (   0.1667258   0.0962592   0.0000000), wk =   0.0555556
        k(   24) = (   0.1667258   0.4812959   0.0000000), wk =   0.0000000
        k(   25) = (  -0.3334516  -0.1925184   0.0000000), wk =   0.0555556
        k(   26) = (  -0.3334516   0.1925184   0.0000000), wk =   0.0000000
        k(   27) = (   0.3334516  -0.1925184   0.0000000), wk =   0.0555556
        k(   28) = (   0.3334516   0.1925184   0.0000000), wk =   0.0000000
        k(   29) = (   0.0000000  -0.3850367   0.0000000), wk =   0.0555556
        k(   30) = (   0.0000000   0.0000000   0.0000000), wk =   0.0000000
        k(   31) = (  -0.3334516   0.1925184   0.0000000), wk =   0.0555556
        k(   32) = (  -0.3334516   0.5775551   0.0000000), wk =   0.0000000
        k(   33) = (   0.3334516   0.1925184   0.0000000), wk =   0.0555556
        k(   34) = (   0.3334516   0.5775551   0.0000000), wk =   0.0000000
        k(   35) = (   0.5001774   0.2887776   0.0000000), wk =   0.0555556
        k(   36) = (   0.5001774   0.6738143   0.0000000), wk =   0.0000000
        k(   37) = (  -0.5001774   0.2887776   0.0000000), wk =   0.0555556
        k(   38) = (  -0.5001774   0.6738143   0.0000000), wk =   0.0000000
        k(   39) = (  -0.1667258   0.2887776   0.0000000), wk =   0.0555556
        k(   40) = (  -0.1667258   0.6738143   0.0000000), wk =   0.0000000
        k(   41) = (  -0.3334516   0.0000000   0.0000000), wk =   0.0555556
        k(   42) = (  -0.3334516   0.3850367   0.0000000), wk =   0.0000000
        k(   43) = (   0.1667258  -0.2887776   0.0000000), wk =   0.0555556
        k(   44) = (   0.1667258   0.0962592   0.0000000), wk =   0.0000000
        k(   45) = (  -0.1667258  -0.2887776   0.0000000), wk =   0.0555556
        k(   46) = (  -0.1667258   0.0962592   0.0000000), wk =   0.0000000
        k(   47) = (   0.3334516  -0.0000000   0.0000000), wk =   0.0555556
        k(   48) = (   0.3334516   0.3850367   0.0000000), wk =   0.0000000
        k(   49) = (  -0.1667258   0.4812959   0.0000000), wk =   0.0555556
        k(   50) = (  -0.1667258   0.8663327   0.0000000), wk =   0.0000000
        k(   51) = (  -0.5001774  -0.0962592   0.0000000), wk =   0.0555556
        k(   52) = (  -0.5001774   0.2887776   0.0000000), wk =   0.0000000
        k(   53) = (   0.3334516  -0.3850367   0.0000000), wk =   0.0555556
        k(   54) = (   0.3334516  -0.0000000   0.0000000), wk =   0.0000000
        k(   55) = (  -0.3334516  -0.3850367   0.0000000), wk =   0.0555556
        k(   56) = (  -0.3334516   0.0000000   0.0000000), wk =   0.0000000
        k(   57) = (   0.5001774  -0.0962592   0.0000000), wk =   0.0555556
        k(   58) = (   0.5001774   0.2887776   0.0000000), wk =   0.0000000
        k(   59) = (  -0.1667258  -0.4812959   0.0000000), wk =   0.0555556
        k(   60) = (  -0.1667258  -0.0962592   0.0000000), wk =   0.0000000
        k(   61) = (   0.1667258  -0.4812959   0.0000000), wk =   0.0555556
        k(   62) = (   0.1667258  -0.0962592   0.0000000), wk =   0.0000000
        k(   63) = (  -0.3334516   0.3850367   0.0000000), wk =   0.0555556
        k(   64) = (  -0.3334516   0.7700735   0.0000000), wk =   0.0000000
        k(   65) = (   0.5001774   0.0962592   0.0000000), wk =   0.0555556
        k(   66) = (   0.5001774   0.4812959   0.0000000), wk =   0.0000000
        k(   67) = (   0.3334516   0.3850367   0.0000000), wk =   0.0555556
        k(   68) = (   0.3334516   0.7700735   0.0000000), wk =   0.0000000
        k(   69) = (  -0.5001774   0.0962592   0.0000000), wk =   0.0555556
        k(   70) = (  -0.5001774   0.4812959   0.0000000), wk =   0.0000000
        k(   71) = (  -0.3334516   0.5775551   0.0000000), wk =   0.0555556
        k(   72) = (  -0.3334516   0.9625919   0.0000000), wk =   0.0000000

     Dense  grid:   104505 G-vectors     FFT dimensions: (  36,  36, 216)

     Smooth grid:    34753 G-vectors     FFT dimensions: (  24,  24, 144)

     Estimated max dynamical RAM per process >       2.80 MB

     Estimated total dynamical RAM >     179.17 MB
 ----2D----2D----2D----2D----2D----2D----2D----2D----2D----2D----2D----2D
  The code is running with the 2D cutoff
  Please refer to:
  Sohier, T., Calandra, M., & Mauri, F. (2017), 
  Density functional perturbation theory for gated two-dimensional heterostructu
 res:
  Theoretical developments and application to flexural phonons in graphene.
  Physical Review B, 96(7), 75448. https://doi.org/10.1103/PhysRevB.96.075448
 ----2D----2D----2D----2D----2D----2D----2D----2D----2D----2D----2D----2D

     The potential is recalculated from file :
     ./TMP_DIR/_ph0/hBN.q_3/hBN.save/charge-density


     negative rho (up, down):  1.264E-04 0.000E+00
     Starting wfcs are    8 atomic wfcs
     Checking if some PAW data can be deallocated... 

     Band Structure Calculation
     Davidson diagonalization with overlap

     ethr =  1.25E-10,  avg # of iterations = 23.6

     total cpu time spent up to now is       23.5 secs

     End of band structure calculation

          k = 0.0000 0.0000 0.0000 (  4323 PWs)   bands (ev):

   -23.4232 -11.0107  -7.1696  -7.1695  -1.1150  -0.1197   1.4323   2.4022

          k = 0.0000 0.3850 0.0000 (  4368 PWs)   bands (ev):

   -21.5002 -12.6746  -9.3950  -8.3808   1.1888   2.2144   3.6321   4.3534

          k = 0.0000 0.1925 0.0000 (  4320 PWs)   bands (ev):

   -22.9011 -10.3072  -9.1318  -8.0492  -0.2274   0.6960   2.3103   3.0889

          k = 0.0000 0.5776 0.0000 (  4340 PWs)   bands (ev):

   -20.3736 -14.6685  -9.9444  -6.7161  -1.0324   3.8516   6.6151   7.0735

          k = 0.0000 0.3850 0.0000 (  4368 PWs)   bands (ev):

   -21.5002 -12.6746  -9.3950  -8.3808   1.1888   2.2144   3.6321   4.3534

          k = 0.0000 0.7701 0.0000 (  4368 PWs)   bands (ev):

   -21.5002 -12.6746  -9.3950  -8.3808   1.1888   2.2144   3.6321   4.3534

          k = 0.0000-0.5776 0.0000 (  4340 PWs)   bands (ev):

   -20.3736 -14.6685  -9.9444  -6.7161  -1.0324   3.8516   6.6151   7.0735

          k = 0.0000-0.1925 0.0000 (  4320 PWs)   bands (ev):

   -22.9011 -10.3072  -9.1318  -8.0492  -0.2274   0.6960   2.3103   3.0889

          k = 0.1667 0.2888 0.0000 (  4360 PWs)   bands (ev):

   -21.9263 -11.3270  -9.7312  -8.9768   1.4899   1.8124   3.2035   4.0364

          k = 0.1667 0.6738 0.0000 (  4368 PWs)   bands (ev):

   -20.4639 -13.8485 -11.1141  -6.8764  -0.3645   4.6688   5.8903   6.4776

          k = 0.1667 0.4813 0.0000 (  4368 PWs)   bands (ev):

   -20.4639 -13.8485 -11.1141  -6.8764  -0.3645   4.6688   5.8903   6.4776

          k = 0.1667 0.8663 0.0000 (  4360 PWs)   bands (ev):

   -21.9263 -11.3270  -9.7312  -8.9768   1.4899   1.8125   3.2035   4.0364

          k = 0.3335 0.5776 0.0000 (  4380 PWs)   bands (ev):

   -19.8021 -13.6703 -12.9767  -5.8200  -1.1570   7.4464   8.7468   9.2838

          k = 0.3335 0.9626 0.0000 (  4368 PWs)   bands (ev):

   -21.5002 -12.6746  -9.3950  -8.3808   1.1888   2.2144   3.6321   4.3534

          k =-0.1667-0.0963 0.0000 (  4320 PWs)   bands (ev):

   -22.9011 -10.3072  -9.1318  -8.0492  -0.2274   0.6960   2.3103   3.0889

          k =-0.1667 0.2888 0.0000 (  4360 PWs)   bands (ev):

   -21.9263 -11.3270  -9.7312  -8.9768   1.4899   1.8125   3.2035   4.0364

          k = 0.1667-0.0963 0.0000 (  4320 PWs)   bands (ev):

   -22.9011 -10.3072  -9.1317  -8.0493  -0.2274   0.6960   2.3103   3.0889

          k = 0.1667 0.2888 0.0000 (  4360 PWs)   bands (ev):

   -21.9263 -11.3270  -9.7312  -8.9768   1.4899   1.8124   3.2035   4.0364

          k = 0.0000-0.1925 0.0000 (  4320 PWs)   bands (ev):

   -22.9011 -10.3072  -9.1318  -8.0492  -0.2274   0.6960   2.3103   3.0889

          k = 0.0000 0.1925 0.0000 (  4320 PWs)   bands (ev):

   -22.9011 -10.3072  -9.1318  -8.0492  -0.2274   0.6960   2.3103   3.0889

          k =-0.1667 0.0963 0.0000 (  4320 PWs)   bands (ev):

   -22.9011 -10.3072  -9.1317  -8.0493  -0.2274   0.6960   2.3103   3.0889

          k =-0.1667 0.4813 0.0000 (  4368 PWs)   bands (ev):

   -20.4639 -13.8485 -11.1141  -6.8764  -0.3645   4.6688   5.8903   6.4776

          k = 0.1667 0.0963 0.0000 (  4320 PWs)   bands (ev):

   -22.9011 -10.3072  -9.1318  -8.0492  -0.2274   0.6960   2.3103   3.0889

          k = 0.1667 0.4813 0.0000 (  4368 PWs)   bands (ev):

   -20.4639 -13.8485 -11.1141  -6.8764  -0.3645   4.6688   5.8903   6.4776

          k =-0.3335-0.1925 0.0000 (  4368 PWs)   bands (ev):

   -21.5002 -12.6746  -9.3950  -8.3808   1.1888   2.2144   3.6321   4.3534

          k =-0.3335 0.1925 0.0000 (  4368 PWs)   bands (ev):

   -21.5002 -12.6746  -9.3950  -8.3808   1.1888   2.2144   3.6321   4.3534

          k = 0.3335-0.1925 0.0000 (  4368 PWs)   bands (ev):

   -21.5002 -12.6746  -9.3950  -8.3808   1.1888   2.2144   3.6321   4.3534

          k = 0.3335 0.1925 0.0000 (  4368 PWs)   bands (ev):

   -21.5002 -12.6746  -9.3950  -8.3808   1.1888   2.2144   3.6321   4.3534

          k = 0.0000-0.3850 0.0000 (  4368 PWs)   bands (ev):

   -21.5002 -12.6746  -9.3950  -8.3808   1.1888   2.2144   3.6321   4.3534

          k = 0.0000 0.0000 0.0000 (  4323 PWs)   bands (ev):

   -23.4232 -11.0107  -7.1696  -7.1695  -1.1150  -0.1197   1.4323   2.4022

          k =-0.3335 0.1925 0.0000 (  4368 PWs)   bands (ev):

   -21.5002 -12.6746  -9.3950  -8.3808   1.1888   2.2144   3.6321   4.3534

          k =-0.3335 0.5776 0.0000 (  4380 PWs)   bands (ev):

   -19.8021 -13.6703 -12.9767  -5.8200  -1.1570   7.4464   8.7468   9.2838

          k = 0.3335 0.1925 0.0000 (  4368 PWs)   bands (ev):

   -21.5002 -12.6746  -9.3950  -8.3808   1.1888   2.2144   3.6321   4.3534

          k = 0.3335 0.5776 0.0000 (  4380 PWs)   bands (ev):

   -19.8021 -13.6703 -12.9767  -5.8200  -1.1570   7.4464   8.7468   9.2838

          k = 0.5002 0.2888 0.0000 (  4340 PWs)   bands (ev):

   -20.3736 -14.6685  -9.9444  -6.7161  -1.0324   3.8516   6.6151   7.0735

          k = 0.5002 0.6738 0.0000 (  4368 PWs)   bands (ev):

   -20.4639 -13.8484 -11.1141  -6.8764  -0.3645   4.6688   5.8903   6.4776

          k =-0.5002 0.2888 0.0000 (  4340 PWs)   bands (ev):

   -20.3736 -14.6685  -9.9445  -6.7161  -1.0323   3.8516   6.6151   7.0735

          k =-0.5002 0.6738 0.0000 (  4368 PWs)   bands (ev):

   -20.4639 -13.8485 -11.1141  -6.8764  -0.3645   4.6688   5.8903   6.4776

          k =-0.1667 0.2888 0.0000 (  4360 PWs)   bands (ev):

   -21.9263 -11.3270  -9.7312  -8.9768   1.4899   1.8125   3.2035   4.0364

          k =-0.1667 0.6738 0.0000 (  4368 PWs)   bands (ev):

   -20.4639 -13.8485 -11.1141  -6.8764  -0.3645   4.6688   5.8903   6.4776

          k =-0.3335 0.0000 0.0000 (  4360 PWs)   bands (ev):

   -21.9263 -11.3270  -9.7312  -8.9768   1.4899   1.8125   3.2035   4.0364

          k =-0.3335 0.3850 0.0000 (  4368 PWs)   bands (ev):

   -20.4639 -13.8484 -11.1141  -6.8764  -0.3645   4.6688   5.8903   6.4776

          k = 0.1667-0.2888 0.0000 (  4360 PWs)   bands (ev):

   -21.9263 -11.3270  -9.7312  -8.9768   1.4899   1.8125   3.2035   4.0364

          k = 0.1667 0.0963 0.0000 (  4320 PWs)   bands (ev):

   -22.9011 -10.3072  -9.1318  -8.0492  -0.2274   0.6960   2.3103   3.0889

          k =-0.1667-0.2888 0.0000 (  4360 PWs)   bands (ev):

   -21.9263 -11.3270  -9.7312  -8.9768   1.4899   1.8124   3.2035   4.0364

          k =-0.1667 0.0963 0.0000 (  4320 PWs)   bands (ev):

   -22.9011 -10.3072  -9.1317  -8.0493  -0.2274   0.6960   2.3103   3.0889

          k = 0.3335-0.0000 0.0000 (  4360 PWs)   bands (ev):

   -21.9263 -11.3270  -9.7312  -8.9768   1.4899   1.8125   3.2035   4.0364

          k = 0.3335 0.3850 0.0000 (  4368 PWs)   bands (ev):

   -20.4639 -13.8485 -11.1141  -6.8764  -0.3645   4.6688   5.8903   6.4776

          k =-0.1667 0.4813 0.0000 (  4368 PWs)   bands (ev):

   -20.4639 -13.8485 -11.1141  -6.8764  -0.3645   4.6688   5.8903   6.4776

          k =-0.1667 0.8663 0.0000 (  4360 PWs)   bands (ev):

   -21.9263 -11.3270  -9.7312  -8.9768   1.4899   1.8124   3.2035   4.0364

          k =-0.5002-0.0963 0.0000 (  4368 PWs)   bands (ev):

   -20.4639 -13.8485 -11.1141  -6.8764  -0.3645   4.6688   5.8903   6.4776

          k =-0.5002 0.2888 0.0000 (  4340 PWs)   bands (ev):

   -20.3736 -14.6685  -9.9445  -6.7161  -1.0323   3.8516   6.6151   7.0735

          k = 0.3335-0.3850 0.0000 (  4368 PWs)   bands (ev):

   -20.4639 -13.8484 -11.1141  -6.8764  -0.3645   4.6688   5.8903   6.4776

          k = 0.3335-0.0000 0.0000 (  4360 PWs)   bands (ev):

   -21.9263 -11.3270  -9.7312  -8.9768   1.4899   1.8125   3.2035   4.0364

          k =-0.3335-0.3850 0.0000 (  4368 PWs)   bands (ev):

   -20.4639 -13.8485 -11.1141  -6.8764  -0.3645   4.6688   5.8903   6.4776

          k =-0.3335 0.0000 0.0000 (  4360 PWs)   bands (ev):

   -21.9263 -11.3270  -9.7312  -8.9768   1.4899   1.8125   3.2035   4.0364

          k = 0.5002-0.0963 0.0000 (  4368 PWs)   bands (ev):

   -20.4639 -13.8484 -11.1141  -6.8764  -0.3645   4.6688   5.8903   6.4776

          k = 0.5002 0.2888 0.0000 (  4340 PWs)   bands (ev):

   -20.3736 -14.6685  -9.9444  -6.7161  -1.0324   3.8516   6.6151   7.0735

          k =-0.1667-0.4813 0.0000 (  4368 PWs)   bands (ev):

   -20.4639 -13.8485 -11.1141  -6.8764  -0.3645   4.6688   5.8903   6.4776

          k =-0.1667-0.0963 0.0000 (  4320 PWs)   bands (ev):

   -22.9011 -10.3072  -9.1318  -8.0492  -0.2274   0.6960   2.3103   3.0889

          k = 0.1667-0.4813 0.0000 (  4368 PWs)   bands (ev):

   -20.4639 -13.8485 -11.1141  -6.8764  -0.3645   4.6688   5.8903   6.4776

          k = 0.1667-0.0963 0.0000 (  4320 PWs)   bands (ev):

   -22.9011 -10.3072  -9.1317  -8.0493  -0.2274   0.6960   2.3103   3.0889

          k =-0.3335 0.3850 0.0000 (  4368 PWs)   bands (ev):

   -20.4639 -13.8484 -11.1141  -6.8764  -0.3645   4.6688   5.8903   6.4776

          k =-0.3335 0.7701 0.0000 (  4368 PWs)   bands (ev):

   -20.4639 -13.8485 -11.1141  -6.8764  -0.3645   4.6688   5.8903   6.4776

          k = 0.5002 0.0963 0.0000 (  4368 PWs)   bands (ev):

   -20.4639 -13.8485 -11.1141  -6.8764  -0.3645   4.6688   5.8903   6.4776

          k = 0.5002 0.4813 0.0000 (  4368 PWs)   bands (ev):

   -20.4639 -13.8485 -11.1141  -6.8764  -0.3645   4.6688   5.8903   6.4776

          k = 0.3335 0.3850 0.0000 (  4368 PWs)   bands (ev):

   -20.4639 -13.8485 -11.1141  -6.8764  -0.3645   4.6688   5.8903   6.4776

          k = 0.3335 0.7701 0.0000 (  4368 PWs)   bands (ev):

   -20.4639 -13.8484 -11.1141  -6.8764  -0.3645   4.6688   5.8903   6.4776

          k =-0.5002 0.0963 0.0000 (  4368 PWs)   bands (ev):

   -20.4639 -13.8484 -11.1141  -6.8764  -0.3645   4.6688   5.8903   6.4776

          k =-0.5002 0.4813 0.0000 (  4368 PWs)   bands (ev):

   -20.4639 -13.8484 -11.1141  -6.8764  -0.3645   4.6688   5.8903   6.4776

          k =-0.3335 0.5776 0.0000 (  4380 PWs)   bands (ev):

   -19.8021 -13.6703 -12.9767  -5.8200  -1.1570   7.4464   8.7468   9.2838

          k =-0.3335 0.9626 0.0000 (  4368 PWs)   bands (ev):

   -21.5002 -12.6746  -9.3950  -8.3808   1.1888   2.2144   3.6321   4.3534

     the Fermi energy is    -2.6412 ev

     Writing output data file ./TMP_DIR/_ph0/hBN.q_3/hBN.save/

     Phonon dispersions for hBN                                                 

     bravais-lattice index     =            0
     lattice parameter (alat)  =       4.7540  a.u.
     unit-cell volume          =     554.4197 (a.u.)^3
     number of atoms/cell      =            2
     number of atomic types    =            2
     kinetic-energy cut-off    =      60.0000  Ry
     charge density cut-off    =     500.0000  Ry
     convergence threshold     =      1.0E-16
     beta                      =       0.1000
     number of iterations used =            4
     Exchange-correlation= PBE
                           (   1   4   3   4   0   0   0)


     celldm(1)=    4.75404  celldm(2)=    0.00000  celldm(3)=    0.00000
     celldm(4)=    0.00000  celldm(5)=    0.00000  celldm(6)=    0.00000

     crystal axes: (cart. coord. in units of alat)
               a(1) = (  0.9996  0.0000  0.0000 )  
               a(2) = ( -0.4998  0.8657  0.0000 )  
               a(3) = (  0.0000  0.0000  5.9625 )  

     reciprocal axes: (cart. coord. in units 2 pi/alat)
               b(1) = (  1.0004  0.5776  0.0000 )  
               b(2) = (  0.0000  1.1551  0.0000 )  
               b(3) = (  0.0000  0.0000  0.1677 )  


     Atoms inside the unit cell: 

     Cartesian axes

     site n.  atom      mass           positions (alat units)
        1     B   10.8110   tau(    1) = (   -0.00000    0.57715    2.98124  )
        2     N   14.0067   tau(    2) = (    0.49982    0.28857    2.98124  )

     Computing dynamical matrix for 
                    q = (   0.0000000   0.3850367   0.0000000 )
 
     No symmetry!

     G cutoff =  286.2440  (   1638 G-vectors)     FFT grid: ( 36, 36,216)
     G cutoff =  137.3971  (    558 G-vectors)  smooth grid: ( 24, 24,144)

     number of k points=    72  Methfessel-Paxton smearing, width (Ry)=  0.0100

     PseudoPot. # 1 for B  read from file:
     ./pseudo/B.pbe-n-kjpaw_psl.1.0.0.UPF
     MD5 check sum: 8c825a5969375aca5c2c6ad5945b3059
     Pseudo is Projector augmented-wave + core cor, Zval =  3.0
     Generated using &quot;atomic&quot; code by A. Dal Corso  v.6.3
     Shape of augmentation charge: PSQ
     Using radial grid of 1059 points,  4 beta functions with: 
                l(1) =   0
                l(2) =   0
                l(3) =   1
                l(4) =   1
     Q(r) pseudized with 0 coefficients 


     PseudoPot. # 2 for N  read from file:
     ./pseudo/N.pbe-n-kjpaw_psl.1.0.0.UPF
     MD5 check sum: 14c48229446f9f2d411169a3abcbc3fa
     Pseudo is Projector augmented-wave + core cor, Zval =  5.0
     Generated using &quot;atomic&quot; code by A. Dal Corso  v.6.3
     Shape of augmentation charge: PSQ
     Using radial grid of 1085 points,  4 beta functions with: 
                l(1) =   0
                l(2) =   0
                l(3) =   1
                l(4) =   1
     Q(r) pseudized with 0 coefficients 


     Mode symmetry, C_1 (1)     point group:


     Atomic displacements:
     There are    6 irreducible representations

     Representation     1      1 modes -  To be done

     Representation     2      1 modes -  To be done

[...]

     Computing dynamical matrix for 
                    q = (  -0.5001774  -0.8663327   0.0000000 )
 
      2 Sym.Ops. (with q -> -q+G )


     G cutoff =  286.2440  (   1638 G-vectors)     FFT grid: ( 36, 36,216)
     G cutoff =  137.3971  (    542 G-vectors)  smooth grid: ( 24, 24,144)

     number of k points=    40  Methfessel-Paxton smearing, width (Ry)=  0.0100

     PseudoPot. # 1 for B  read from file:
     ./pseudo/B.pbe-n-kjpaw_psl.1.0.0.UPF
     MD5 check sum: 8c825a5969375aca5c2c6ad5945b3059
     Pseudo is Projector augmented-wave + core cor, Zval =  3.0
     Generated using &quot;atomic&quot; code by A. Dal Corso  v.6.3
     Shape of augmentation charge: PSQ
     Using radial grid of 1059 points,  4 beta functions with: 
                l(1) =   0
                l(2) =   0
                l(3) =   1
                l(4) =   1
     Q(r) pseudized with 0 coefficients 


     PseudoPot. # 2 for N  read from file:
     ./pseudo/N.pbe-n-kjpaw_psl.1.0.0.UPF
     MD5 check sum: 14c48229446f9f2d411169a3abcbc3fa
     Pseudo is Projector augmented-wave + core cor, Zval =  5.0
     Generated using &quot;atomic&quot; code by A. Dal Corso  v.6.3
     Shape of augmentation charge: PSQ
     Using radial grid of 1085 points,  4 beta functions with: 
                l(1) =   0
                l(2) =   0
                l(3) =   1
                l(4) =   1
     Q(r) pseudized with 0 coefficients 


     Mode symmetry, C_1 (1)     point group:


     Atomic displacements:
     There are    6 irreducible representations

     Representation     1      1 modes -  To be done

     Representation     2      1 modes -  To be done

     Representation     3      1 modes -  To be done

     Representation     4      1 modes -  To be done

     Representation     5      1 modes -  To be done

     Representation     6      1 modes -  To be done



     Alpha used in Ewald sum =   2.8000

     negative rho (up, down):  1.264E-04 0.000E+00
     PHONON       :  36m20.23s CPU  44m51.17s WALL



     Representation #   1 mode #   1

     Self-consistent Calculation

      iter #   1 total cpu time :  2691.9 secs   av.it.:   5.8
      thresh= 1.000E-02 alpha_mix =  0.100 |ddv_scf|^2 =  3.049E-07

      iter #   2 total cpu time :  2704.8 secs   av.it.:   9.2
      thresh= 5.522E-05 alpha_mix =  0.100 |ddv_scf|^2 =  1.802E-07

      iter #   3 total cpu time :  2717.4 secs   av.it.:  10.2
      thresh= 4.245E-05 alpha_mix =  0.100 |ddv_scf|^2 =  2.654E-08

      iter #   4 total cpu time :  2747.9 secs   av.it.:  10.3
      thresh= 1.629E-05 alpha_mix =  0.100 |ddv_scf|^2 =  1.961E-09

      iter #   5 total cpu time :  2766.7 secs   av.it.:   9.5
      thresh= 4.428E-06 alpha_mix =  0.100 |ddv_scf|^2 =  9.925E-10

      iter #   6 total cpu time :  2774.9 secs   av.it.:  10.4
      thresh= 3.150E-06 alpha_mix =  0.100 |ddv_scf|^2 =  4.953E-11

      iter #   7 total cpu time :  2782.2 secs   av.it.:  10.9
      thresh= 7.038E-07 alpha_mix =  0.100 |ddv_scf|^2 =  4.029E-12

      iter #   8 total cpu time :  2797.0 secs   av.it.:  11.4
      thresh= 2.007E-07 alpha_mix =  0.100 |ddv_scf|^2 =  9.421E-14

      iter #   9 total cpu time :  2811.1 secs   av.it.:   9.5
      thresh= 3.069E-08 alpha_mix =  0.100 |ddv_scf|^2 =  6.633E-14

      iter #  10 total cpu time :  2821.8 secs   av.it.:   9.9
      thresh= 2.576E-08 alpha_mix =  0.100 |ddv_scf|^2 =  4.508E-14

      iter #  11 total cpu time :  2832.4 secs   av.it.:  10.8
      thresh= 2.123E-08 alpha_mix =  0.100 |ddv_scf|^2 =  1.435E-15

      iter #  12 total cpu time :  2849.4 secs   av.it.:   8.6
      thresh= 3.788E-09 alpha_mix =  0.100 |ddv_scf|^2 =  9.050E-16

      iter #  13 total cpu time :  2865.8 secs   av.it.:  10.3
      thresh= 3.008E-09 alpha_mix =  0.100 |ddv_scf|^2 =  3.003E-17

     End of self-consistent calculation

     Convergence has been achieved 


     Representation #   2 mode #   2

     Self-consistent Calculation

      iter #   1 total cpu time :  2873.1 secs   av.it.:   5.5
      thresh= 1.000E-02 alpha_mix =  0.100 |ddv_scf|^2 =  1.627E-07

      iter #   2 total cpu time :  2873.6 secs   av.it.:   9.1
      thresh= 4.034E-05 alpha_mix =  0.100 |ddv_scf|^2 =  1.094E-07

      iter #   3 total cpu time :  2882.2 secs   av.it.:  10.3
      thresh= 3.307E-05 alpha_mix =  0.100 |ddv_scf|^2 =  2.406E-08

      iter #   4 total cpu time :  2958.5 secs   av.it.:  10.4
      thresh= 1.551E-05 alpha_mix =  0.100 |ddv_scf|^2 =  1.374E-09

      iter #   5 total cpu time :  2998.5 secs   av.it.:   9.9
      thresh= 3.706E-06 alpha_mix =  0.100 |ddv_scf|^2 =  5.698E-10

      iter #   6 total cpu time :  3007.7 secs   av.it.:  10.8
      thresh= 2.387E-06 alpha_mix =  0.100 |ddv_scf|^2 =  5.314E-11

      iter #   7 total cpu time :  3010.4 secs   av.it.:  10.7
      thresh= 7.290E-07 alpha_mix =  0.100 |ddv_scf|^2 =  6.069E-12

      iter #   8 total cpu time :  3011.5 secs   av.it.:  11.3
      thresh= 2.464E-07 alpha_mix =  0.100 |ddv_scf|^2 =  7.970E-14

      iter #   9 total cpu time :  3012.1 secs   av.it.:   8.5
      thresh= 2.823E-08 alpha_mix =  0.100 |ddv_scf|^2 =  6.373E-14

      iter #  10 total cpu time :  3012.9 secs   av.it.:  10.5
      thresh= 2.524E-08 alpha_mix =  0.100 |ddv_scf|^2 =  1.447E-14

      iter #  11 total cpu time :  3016.4 secs   av.it.:  10.0
      thresh= 1.203E-08 alpha_mix =  0.100 |ddv_scf|^2 =  1.093E-15

      iter #  12 total cpu time :  3022.7 secs   av.it.:   9.5
      thresh= 3.305E-09 alpha_mix =  0.100 |ddv_scf|^2 =  6.210E-16

      iter #  13 total cpu time :  3040.2 secs   av.it.:  10.9
      thresh= 2.492E-09 alpha_mix =  0.100 |ddv_scf|^2 =  1.837E-17

     End of self-consistent calculation

     Convergence has been achieved 


     Representation #   3 mode #   3

     Self-consistent Calculation

      iter #   1 total cpu time :  3198.7 secs   av.it.:   5.0
      thresh= 1.000E-02 alpha_mix =  0.100 |ddv_scf|^2 =  9.513E-08

      iter #   2 total cpu time :  3270.4 secs   av.it.:   8.1
      thresh= 3.084E-05 alpha_mix =  0.100 |ddv_scf|^2 =  7.659E-08

      iter #   3 total cpu time :  3299.5 secs   av.it.:   9.9
      thresh= 2.767E-05 alpha_mix =  0.100 |ddv_scf|^2 =  1.016E-09

      iter #   4 total cpu time :  3320.0 secs   av.it.:   8.9
      thresh= 3.188E-06 alpha_mix =  0.100 |ddv_scf|^2 =  6.879E-10

      iter #   5 total cpu time :  3332.5 secs   av.it.:  10.3
      thresh= 2.623E-06 alpha_mix =  0.100 |ddv_scf|^2 =  5.800E-12

      iter #   6 total cpu time :  3335.6 secs   av.it.:  10.3
      thresh= 2.408E-07 alpha_mix =  0.100 |ddv_scf|^2 =  1.035E-12

      iter #   7 total cpu time :  3337.5 secs   av.it.:  10.9
      thresh= 1.018E-07 alpha_mix =  0.100 |ddv_scf|^2 =  1.883E-14

      iter #   8 total cpu time :  3341.4 secs   av.it.:   9.2
      thresh= 1.372E-08 alpha_mix =  0.100 |ddv_scf|^2 =  3.395E-15

      iter #   9 total cpu time :  3342.2 secs   av.it.:   9.8
      thresh= 5.826E-09 alpha_mix =  0.100 |ddv_scf|^2 =  1.809E-17

     End of self-consistent calculation

     Convergence has been achieved 


     Representation #   4 mode #   4

     Self-consistent Calculation

      iter #   1 total cpu time :  3352.9 secs   av.it.:   6.7
      thresh= 1.000E-02 alpha_mix =  0.100 |ddv_scf|^2 =  1.697E-06

      iter #   2 total cpu time :  3355.6 secs   av.it.:   9.1
      thresh= 1.303E-04 alpha_mix =  0.100 |ddv_scf|^2 =  1.000E-06

      iter #   3 total cpu time :  3359.0 secs   av.it.:  10.3
      thresh= 1.000E-04 alpha_mix =  0.100 |ddv_scf|^2 =  5.227E-08

      iter #   4 total cpu time :  3363.8 secs   av.it.:  10.7
      thresh= 2.286E-05 alpha_mix =  0.100 |ddv_scf|^2 =  3.192E-09

      iter #   5 total cpu time :  3415.8 secs   av.it.:  10.1
      thresh= 5.649E-06 alpha_mix =  0.100 |ddv_scf|^2 =  1.014E-09

      iter #   6 total cpu time :  3519.5 secs   av.it.:  10.9
      thresh= 3.185E-06 alpha_mix =  0.100 |ddv_scf|^2 =  2.196E-10

      iter #   7 total cpu time :  3587.8 secs   av.it.:  10.7
      thresh= 1.482E-06 alpha_mix =  0.100 |ddv_scf|^2 =  6.294E-12

      iter #   8 total cpu time :  3674.4 secs   av.it.:  10.8
      thresh= 2.509E-07 alpha_mix =  0.100 |ddv_scf|^2 =  3.719E-13

      iter #   9 total cpu time :  3741.9 secs   av.it.:  10.9
      thresh= 6.098E-08 alpha_mix =  0.100 |ddv_scf|^2 =  2.549E-14

      iter #  10 total cpu time :  3807.2 secs   av.it.:  10.8
      thresh= 1.596E-08 alpha_mix =  0.100 |ddv_scf|^2 =  1.005E-14

      iter #  11 total cpu time :  3842.6 secs   av.it.:  10.3
      thresh= 1.003E-08 alpha_mix =  0.100 |ddv_scf|^2 =  1.061E-15

      iter #  12 total cpu time :  3847.6 secs   av.it.:  10.2
      thresh= 3.258E-09 alpha_mix =  0.100 |ddv_scf|^2 =  3.607E-16

      iter #  13 total cpu time :  3853.1 secs   av.it.:  10.8
      thresh= 1.899E-09 alpha_mix =  0.100 |ddv_scf|^2 =  1.091E-17

     End of self-consistent calculation

     Convergence has been achieved 


     Representation #   5 mode #   5

     Self-consistent Calculation

      iter #   1 total cpu time :  3879.8 secs   av.it.:   6.3
      thresh= 1.000E-02 alpha_mix =  0.100 |ddv_scf|^2 =  7.545E-07

      iter #   2 total cpu time :  3886.6 secs   av.it.:   9.1
      thresh= 8.686E-05 alpha_mix =  0.100 |ddv_scf|^2 =  4.777E-07

      iter #   3 total cpu time :  3888.6 secs   av.it.:  10.5
      thresh= 6.912E-05 alpha_mix =  0.100 |ddv_scf|^2 =  5.030E-08

      iter #   4 total cpu time :  3892.5 secs   av.it.:  10.7
      thresh= 2.243E-05 alpha_mix =  0.100 |ddv_scf|^2 =  2.763E-09

      iter #   5 total cpu time :  3894.7 secs   av.it.:   9.6
      thresh= 5.257E-06 alpha_mix =  0.100 |ddv_scf|^2 =  1.536E-09

      iter #   6 total cpu time :  3897.5 secs   av.it.:  10.9
      thresh= 3.919E-06 alpha_mix =  0.100 |ddv_scf|^2 =  9.677E-11

      iter #   7 total cpu time :  3898.2 secs   av.it.:  10.7
      thresh= 9.837E-07 alpha_mix =  0.100 |ddv_scf|^2 =  2.701E-12

      iter #   8 total cpu time :  3899.3 secs   av.it.:  10.6
      thresh= 1.644E-07 alpha_mix =  0.100 |ddv_scf|^2 =  3.303E-13

      iter #   9 total cpu time :  3900.2 secs   av.it.:  10.8
      thresh= 5.747E-08 alpha_mix =  0.100 |ddv_scf|^2 =  2.005E-14

      iter #  10 total cpu time :  3900.9 secs   av.it.:   9.8
      thresh= 1.416E-08 alpha_mix =  0.100 |ddv_scf|^2 =  1.290E-14

      iter #  11 total cpu time :  3908.6 secs   av.it.:  10.8
      thresh= 1.136E-08 alpha_mix =  0.100 |ddv_scf|^2 =  8.076E-16

      iter #  12 total cpu time :  3917.6 secs   av.it.:  10.6
      thresh= 2.842E-09 alpha_mix =  0.100 |ddv_scf|^2 =  3.847E-16

      iter #  13 total cpu time :  3924.2 secs   av.it.:  10.2
      thresh= 1.961E-09 alpha_mix =  0.100 |ddv_scf|^2 =  2.283E-16

      iter #  14 total cpu time :  3928.0 secs   av.it.:  10.2
      thresh= 1.511E-09 alpha_mix =  0.100 |ddv_scf|^2 =  1.314E-16

      iter #  15 total cpu time :  3931.0 secs   av.it.:  10.9
      thresh= 1.146E-09 alpha_mix =  0.100 |ddv_scf|^2 =  1.250E-18

     End of self-consistent calculation

     Convergence has been achieved 


     Representation #   6 mode #   6

     Self-consistent Calculation

      iter #   1 total cpu time :  3941.7 secs   av.it.:   6.1
      thresh= 1.000E-02 alpha_mix =  0.100 |ddv_scf|^2 =  6.207E-07

      iter #   2 total cpu time :  3942.4 secs   av.it.:   8.5
      thresh= 7.878E-05 alpha_mix =  0.100 |ddv_scf|^2 =  4.784E-07

      iter #   3 total cpu time :  3943.1 secs   av.it.:  10.1
      thresh= 6.917E-05 alpha_mix =  0.100 |ddv_scf|^2 =  2.462E-08

      iter #   4 total cpu time :  3943.7 secs   av.it.:   8.8
      thresh= 1.569E-05 alpha_mix =  0.100 |ddv_scf|^2 =  9.994E-09

      iter #   5 total cpu time :  3944.2 secs   av.it.:  10.1
      thresh= 9.997E-06 alpha_mix =  0.100 |ddv_scf|^2 =  6.802E-12

      iter #   6 total cpu time :  3946.0 secs   av.it.:   8.9
      thresh= 2.608E-07 alpha_mix =  0.100 |ddv_scf|^2 =  4.780E-12

      iter #   7 total cpu time :  3949.4 secs   av.it.:  10.2
      thresh= 2.186E-07 alpha_mix =  0.100 |ddv_scf|^2 =  7.416E-14

      iter #   8 total cpu time :  3951.1 secs   av.it.:   9.9
      thresh= 2.723E-08 alpha_mix =  0.100 |ddv_scf|^2 =  1.377E-14

      iter #   9 total cpu time :  3952.4 secs   av.it.:  10.4
      thresh= 1.174E-08 alpha_mix =  0.100 |ddv_scf|^2 =  2.241E-16

      iter #  10 total cpu time :  3953.2 secs   av.it.:   9.0
      thresh= 1.497E-09 alpha_mix =  0.100 |ddv_scf|^2 =  1.484E-16

      iter #  11 total cpu time :  3954.6 secs   av.it.:   9.7
      thresh= 1.218E-09 alpha_mix =  0.100 |ddv_scf|^2 =  9.788E-17

     End of self-consistent calculation

     Convergence has been achieved 
 
     Number of q in the star =    1
     List of q in the star:
          1  -0.500177405  -0.866332679   0.000000000

     Diagonalizing the dynamical matrix

     q = (   -0.500177405  -0.866332679   0.000000000 ) 

 **************************************************************************
     freq (    1) =       9.086724 [THz] =     303.100503 [cm-1]
     freq (    2) =      16.399895 [THz] =     547.041629 [cm-1]
     freq (    3) =      18.812697 [THz] =     627.524023 [cm-1]
     freq (    4) =      34.367891 [THz] =    1146.389462 [cm-1]
     freq (    5) =      37.251625 [THz] =    1242.580455 [cm-1]
     freq (    6) =      38.599638 [THz] =    1287.545330 [cm-1]
 **************************************************************************

     Mode symmetry, C_1 (1)     point group:

     freq (   1-   1) =        303.1  [cm-1]   --> A                  
     freq (   2-   2) =        547.0  [cm-1]   --> A                  
     freq (   3-   3) =        627.5  [cm-1]   --> A                  
     freq (   4-   4) =       1146.4  [cm-1]   --> A                  
     freq (   5-   5) =       1242.6  [cm-1]   --> A                  
     freq (   6-   6) =       1287.5  [cm-1]   --> A                  
 
     init_run     :      6.21s CPU     16.26s WALL (      19 calls)
     electrons    :    219.63s CPU    224.97s WALL (      19 calls)

     Called by init_run:
     wfcinit      :      0.01s CPU      0.63s WALL (      19 calls)
     potinit      :      0.36s CPU      9.49s WALL (      19 calls)
     hinit0       :      1.11s CPU      1.13s WALL (      19 calls)

     Called by electrons:
     c_bands      :    219.58s CPU    224.58s WALL (      19 calls)
     v_of_rho     :      0.08s CPU      0.09s WALL (      20 calls)
     newd         :      0.04s CPU      0.08s WALL (      20 calls)
     PAW_pot      :      0.22s CPU      0.26s WALL (      20 calls)

     Called by c_bands:
     init_us_2    :      1.60s CPU      1.76s WALL (   57200 calls)
     cegterg      :    194.74s CPU    197.73s WALL (    2226 calls)

     Called by *egterg:
     cdiaghg      :    112.65s CPU    113.68s WALL (   31310 calls)
     h_psi        :    468.86s CPU    487.04s WALL (  615101 calls)
     s_psi        :      6.96s CPU      7.52s WALL ( 1245934 calls)
     g_psi        :      0.11s CPU      0.11s WALL (   30038 calls)

     Called by h_psi:
     h_psi:calbec :     25.24s CPU     26.49s WALL (  615101 calls)
     vloc_psi     :    434.01s CPU    450.46s WALL (  615101 calls)
     add_vuspsi   :      3.98s CPU      4.25s WALL (  615101 calls)

     General routines
     calbec       :     61.60s CPU     64.38s WALL ( 1324106 calls)
     fft          :     51.35s CPU     51.80s WALL (   26535 calls)
     ffts         :      1.80s CPU      1.92s WALL (    8399 calls)
     fftw         :    816.92s CPU    838.78s WALL ( 5127100 calls)
     interpolate  :      1.78s CPU      1.95s WALL (    3143 calls)
     davcio       :      5.04s CPU     50.63s WALL (  267145 calls)
 
     Parallel routines
 
     PHONON       :  56m28.85s CPU      1h 5m WALL

     INITIALIZATION: 
     phq_setup    :      0.17s CPU      4.64s WALL (      20 calls)
     phq_init     :     11.52s CPU     13.83s WALL (      20 calls)
 
     phq_init     :     11.52s CPU     13.83s WALL (      20 calls)
     set_drhoc    :      2.33s CPU      2.35s WALL (      60 calls)
     init_vloc    :      0.40s CPU      0.40s WALL (      20 calls)
     init_us_1    :      0.31s CPU      0.31s WALL (      20 calls)
     newd         :      0.04s CPU      0.08s WALL (      20 calls)
     dvanqq       :      0.28s CPU      0.28s WALL (      20 calls)
     drho         :      3.02s CPU      3.29s WALL (      20 calls)
 
     DYNAMICAL MATRIX:
     dynmat0      :      1.93s CPU      3.94s WALL (      20 calls)
     phqscf       :   3131.90s CPU   3649.52s WALL (      20 calls)
     dynmatrix    :      9.75s CPU     12.42s WALL (      20 calls)
 
     phqscf       :   3131.90s CPU   3649.52s WALL (      20 calls)
     solve_linter :   3123.87s CPU   3609.58s WALL (     120 calls)
     drhodv       :      7.93s CPU      8.02s WALL (     120 calls)
 
     dynmat0      :      1.93s CPU      3.94s WALL (      20 calls)
     dynmat_us    :      0.27s CPU      0.28s WALL (      20 calls)
     d2ionq       :      0.01s CPU      0.02s WALL (      20 calls)
     dynmatcc     :      1.64s CPU      1.66s WALL (      20 calls)
 
     dynmat_us    :      0.27s CPU      0.28s WALL (      20 calls)
     addusdynmat  :      0.00s CPU      0.00s WALL (      20 calls)
 
     phqscf       :   3131.90s CPU   3649.52s WALL (      20 calls)
     solve_linter :   3123.87s CPU   3609.58s WALL (     120 calls)
 
     solve_linter :   3123.87s CPU   3609.58s WALL (     120 calls)
     dvqpsi_us    :      5.86s CPU      6.14s WALL (    3936 calls)
     ortho        :     87.31s CPU     88.04s WALL (   49268 calls)
     cgsolve      :    525.42s CPU    547.45s WALL (   49268 calls)
     incdrhoscf   :    252.21s CPU    256.47s WALL (   49268 calls)
     addusddens   :      3.56s CPU     12.01s WALL (    1609 calls)
     vpsifft      :    145.78s CPU    148.23s WALL (   45332 calls)
     dv_of_drho   :      5.07s CPU      5.19s WALL (    1489 calls)
     mix_pot      :    310.66s CPU    375.86s WALL (    1489 calls)
     ef_shift     :      2.56s CPU      2.59s WALL (      66 calls)
     localdos     :      2.24s CPU      2.31s WALL (       6 calls)
     psymdvscf    :    124.66s CPU    125.56s WALL (     271 calls)
     newdq        :      3.52s CPU      3.54s WALL (    1489 calls)
     adddvscf     :      0.92s CPU      0.99s WALL (   45332 calls)
     drhodvus     :     54.49s CPU     60.58s WALL (     120 calls)
 
     dvqpsi_us    :      5.86s CPU      6.14s WALL (    3936 calls)
     dvqpsi_us_on :      0.39s CPU      0.41s WALL (    3936 calls)
 
     cgsolve      :    525.42s CPU    547.45s WALL (   49268 calls)
     ch_psi       :    491.42s CPU    511.42s WALL (  581565 calls)
 
     ch_psi       :    491.42s CPU    511.42s WALL (  581565 calls)
     h_psi        :    468.86s CPU    487.04s WALL (  615101 calls)
     last         :     42.65s CPU     45.02s WALL (  581565 calls)
 
     h_psi        :    468.86s CPU    487.04s WALL (  615101 calls)
     add_vuspsi   :      3.98s CPU      4.25s WALL (  615101 calls)
 
     incdrhoscf   :    252.21s CPU    256.47s WALL (   49268 calls)
     addusdbec    :      3.66s CPU      3.97s WALL (   53204 calls)
 
     drhodvus     :     54.49s CPU     60.58s WALL (     120 calls)
 
      General routines
     calbec       :     61.60s CPU     64.38s WALL ( 1324106 calls)
     fft          :     51.35s CPU     51.80s WALL (   26535 calls)
     ffts         :      1.80s CPU      1.92s WALL (    8399 calls)
     fftw         :    816.92s CPU    838.78s WALL ( 5127100 calls)
     davcio       :      5.04s CPU     50.63s WALL (  267145 calls)
     write_rec    :      1.00s CPU    375.63s WALL (    1609 calls)
 
 
     PHONON       :  56m28.85s CPU      1h 5m WALL

 
   This run was terminated on:  19:30:52  15Dec2022            

=------------------------------------------------------------------------------=
   JOB DONE.
=------------------------------------------------------------------------------=
