
     Program PWSCF v.6.4.1 starts on  2Jul2021 at 10:32:45 

     This program is part of the open-source Quantum ESPRESSO suite
     for quantum simulation of materials; please cite
         "P. Giannozzi et al., J. Phys.:Condens. Matter 21 395502 (2009);
         "P. Giannozzi et al., J. Phys.:Condens. Matter 29 465901 (2017);
          URL http://www.quantum-espresso.org", 
     in publications or presentations arising from this work. More details at
     http://www.quantum-espresso.org/quote

     Parallel version (MPI), running on    64 processors

     MPI processes distributed on     2 nodes
     R & G space division:  proc/nbgrp/npool/nimage =      64
     Waiting for input...
     Reading input from standard input

     Current dimensions of program PWSCF are:
     Max number of different atomic species (ntypx) = 10
     Max number of k-points (npk) =  40000
     Max angular momentum in pseudopotentials (lmaxx) =  3
               file N.pbe-n-kjpaw_psl.1.0.0.UPF: wavefunction(s)  2S renormalized
               file C.pbe-n-kjpaw_psl.1.0.0.UPF: wavefunction(s)  2S 2P renormalized
               file C.pbe-n-kjpaw_psl.1.0.0.UPF: wavefunction(s)  2S 2P renormalized
               file C.pbe-n-kjpaw_psl.1.0.0.UPF: wavefunction(s)  2S 2P renormalized

     --------------------------------------------
     Parameters for DFT-D3 Dispersion Correction:
     --------------------------------------------
       Reference C6 values for interpolation: 

         atom   Coordination number   C6
         B          0.000           214.36
         B          0.971           150.74
         B          1.944           106.23
         B          2.913            62.89
         B          4.586            56.06
         C1         0.000            98.23
         C1         0.987            86.49
         C1         1.998            58.72
         C1         2.999            51.56
         C1         3.984            36.41
         C2         0.000            98.23
         C2         0.987            86.49
         C2         1.998            58.72
         C2         2.999            51.56
         C2         3.984            36.41
         C3         0.000            98.23
         C3         0.987            86.49
         C3         1.998            58.72
         C3         2.999            51.56
         C3         3.984            36.41
         N          0.000            50.54
         N          0.994            44.25
         N          2.014            39.35
         N          2.990            31.16

       Values used:

         atom   Coordination number  R0_AB[au]  C6      C8
         B          3.326            3.039     62.90   2506.22
         B          3.318            3.039     62.90   2506.42
         B          3.320            3.039     62.90   2506.37
         B          3.324            3.039     62.90   2506.29
         B          3.326            3.039     62.90   2506.23
         B          3.324            3.039     62.90   2506.27
         B          3.327            3.039     62.90   2506.21
         B          3.326            3.039     62.90   2506.24
         B          3.321            3.039     62.90   2506.34
         B          3.311            3.039     62.91   2506.58
         B          3.319            3.039     62.90   2506.40
         B          3.324            3.039     62.90   2506.27
         B          3.324            3.039     62.90   2506.29
         B          3.324            3.039     62.90   2506.27
         B          3.325            3.039     62.90   2506.25
         B          3.329            3.039     62.90   2506.16
         B          3.304            3.039     62.91   2506.74
         B          3.292            3.039     62.92   2507.00
         B          3.318            3.039     62.90   2506.42
         B          3.324            3.039     62.90   2506.27
         B          3.326            3.039     62.90   2506.23
         B          3.322            3.039     62.90   2506.32
         B          3.319            3.039     62.90   2506.39
         B          3.306            3.039     62.91   2506.70
         C2         3.251            2.750     49.40   1428.70
         B          3.292            3.039     62.92   2507.00
         B          3.319            3.039     62.90   2506.40
         B          3.324            3.039     62.90   2506.29
         B          3.321            3.039     62.90   2506.36
         B          3.316            3.039     62.90   2506.45
         B          3.303            3.039     62.91   2506.75
         B          3.306            3.039     62.91   2506.70
         B          3.304            3.039     62.91   2506.74
         B          3.311            3.039     62.91   2506.58
         B          3.320            3.039     62.90   2506.37
         B          3.317            3.039     62.90   2506.43
         B          3.317            3.039     62.90   2506.43
         B          3.316            3.039     62.90   2506.45
         B          3.319            3.039     62.90   2506.39
         B          3.329            3.039     62.90   2506.16
         B          3.321            3.039     62.90   2506.34
         B          3.318            3.039     62.90   2506.42
         B          3.320            3.039     62.90   2506.38
         B          3.317            3.039     62.90   2506.43
         B          3.321            3.039     62.90   2506.36
         B          3.322            3.039     62.90   2506.32
         B          3.325            3.039     62.90   2506.25
         B          3.326            3.039     62.90   2506.24
         B          3.326            3.039     62.90   2506.22
         N          3.130            2.478     31.22    688.74
         N          3.129            2.478     31.22    688.75
         N          3.126            2.478     31.22    688.77
         N          3.128            2.478     31.22    688.75
         N          3.129            2.478     31.22    688.74
         N          3.129            2.478     31.22    688.75
         N          3.129            2.478     31.22    688.75
         N          3.129            2.478     31.22    688.75
         N          3.130            2.478     31.22    688.74
         N          3.126            2.478     31.22    688.77
         N          3.125            2.478     31.22    688.79
         N          3.129            2.478     31.22    688.75
         N          3.129            2.478     31.22    688.75
         N          3.129            2.478     31.22    688.75
         N          3.129            2.478     31.22    688.74
         N          3.130            2.478     31.22    688.73
         N          3.133            2.478     31.22    688.70
         C1         3.189            2.750     50.18   1451.24
         N          3.129            2.478     31.22    688.75
         N          3.129            2.478     31.22    688.75
         N          3.129            2.478     31.22    688.74
         N          3.129            2.478     31.22    688.75
         N          3.127            2.478     31.22    688.77
         N          3.123            2.478     31.22    688.81
         N          3.151            2.478     31.21    688.55
         C3         3.189            2.750     50.18   1451.24
         N          3.125            2.478     31.22    688.79
         N          3.128            2.478     31.22    688.75
         N          3.127            2.478     31.22    688.76
         N          3.127            2.478     31.22    688.77
         N          3.125            2.478     31.22    688.79
         N          3.123            2.478     31.22    688.81
         N          3.133            2.478     31.22    688.70
         N          3.126            2.478     31.22    688.77
         N          3.126            2.478     31.22    688.77
         N          3.127            2.478     31.22    688.77
         N          3.126            2.478     31.22    688.77
         N          3.127            2.478     31.22    688.77
         N          3.127            2.478     31.22    688.77
         N          3.130            2.478     31.22    688.73
         N          3.130            2.478     31.22    688.74
         N          3.129            2.478     31.22    688.75
         N          3.130            2.478     31.22    688.74
         N          3.127            2.478     31.22    688.77
         N          3.127            2.478     31.22    688.76
         N          3.129            2.478     31.22    688.75
         N          3.129            2.478     31.22    688.74
         N          3.129            2.478     31.22    688.75
         N          3.130            2.478     31.22    688.74

         Molecular C6 ( Ry / a.u.^6 ) =    437704.61


     gamma-point specific algorithms are used

     Subspace diagonalization in iterative solution of the eigenvalue problem:
     one sub-group per band group will be used
     scalapack distributed-memory algorithm (size of sub-group:  5*  5 procs)

     Message from routine setup:
     DEPRECATED: symmetry with ibrav=0, use correct ibrav instead
 
     Parallelization info
     --------------------
     sticks:   dense  smooth     PW     G-vecs:    dense   smooth      PW
     Min         189     189     46                19310    19310    2402
     Max         192     192     48                19330    19330    2424
     Sum       12165   12165   3049              1236777  1236777  154717
 


     bravais-lattice index     =            0
     lattice parameter (alat)  =      33.2346  a.u.
     unit-cell volume          =   36191.4510 (a.u.)^3
     number of atoms/cell      =           98
     number of atomic types    =            5
     number of electrons       =       391.00
     number of Kohn-Sham states=          245
     kinetic-energy cutoff     =      40.0000  Ry
     charge density cutoff     =     160.0000  Ry
     convergence threshold     =      1.0E-12
     mixing beta               =       0.7000
     number of iterations used =            8  plain     mixing
     Exchange-correlation      = SLA PW PBX PBC ( 1  4  3  4 0 0)
     Using LIBXC version       =    4   3   4
     nstep                     =           50


     celldm(1)=  33.234611  celldm(2)=   0.000000  celldm(3)=   0.000000
     celldm(4)=   0.000000  celldm(5)=   0.000000  celldm(6)=   0.000000

     crystal axes: (cart. coord. in units of alat)
               a(1) = (   1.000288   0.000429   0.000000 )  
               a(2) = (  -0.499773   0.866490   0.000000 )  
               a(3) = (   0.000000   0.000000   1.137204 )  

     reciprocal axes: (cart. coord. in units 2 pi/alat)
               b(1) = (  0.999465  0.576470  0.000000 )  
               b(2) = ( -0.000495  1.153797  0.000000 )  
               b(3) = (  0.000000  0.000000  0.879350 )  


     PseudoPot. # 1 for B  read from file:
     ./pseudo/B.pbe-n-kjpaw_psl.1.0.0.UPF
     MD5 check sum: 8c825a5969375aca5c2c6ad5945b3059
     Pseudo is Projector augmented-wave + core cor, Zval =  3.0
     Generated using "atomic" code by A. Dal Corso v.6.3
     Shape of augmentation charge: PSQ
     Using radial grid of 1059 points,  4 beta functions with: 
                l(1) =   0
                l(2) =   0
                l(3) =   1
                l(4) =   1
     Q(r) pseudized with 0 coefficients 


     PseudoPot. # 2 for N  read from file:
     ./pseudo/N.pbe-n-kjpaw_psl.1.0.0.UPF
     MD5 check sum: 14c48229446f9f2d411169a3abcbc3fa
     Pseudo is Projector augmented-wave + core cor, Zval =  5.0
     Generated using "atomic" code by A. Dal Corso v.6.3
     Shape of augmentation charge: PSQ
     Using radial grid of 1085 points,  4 beta functions with: 
                l(1) =   0
                l(2) =   0
                l(3) =   1
                l(4) =   1
     Q(r) pseudized with 0 coefficients 


     PseudoPot. # 3 for C  read from file:
     ./pseudo/C.pbe-n-kjpaw_psl.1.0.0.UPF
     MD5 check sum: 5f16ad9a65e90284d1d834d4ab3b0f7d
     Pseudo is Projector augmented-wave + core cor, Zval =  4.0
     Generated using "atomic" code by A. Dal Corso v.6.3
     Shape of augmentation charge: PSQ
     Using radial grid of 1073 points,  4 beta functions with: 
                l(1) =   0
                l(2) =   0
                l(3) =   1
                l(4) =   1
     Q(r) pseudized with 0 coefficients 


     PseudoPot. # 4 for C  read from file:
     ./pseudo/C.pbe-n-kjpaw_psl.1.0.0.UPF
     MD5 check sum: 5f16ad9a65e90284d1d834d4ab3b0f7d
     Pseudo is Projector augmented-wave + core cor, Zval =  4.0
     Generated using "atomic" code by A. Dal Corso v.6.3
     Shape of augmentation charge: PSQ
     Using radial grid of 1073 points,  4 beta functions with: 
                l(1) =   0
                l(2) =   0
                l(3) =   1
                l(4) =   1
     Q(r) pseudized with 0 coefficients 


     PseudoPot. # 5 for C  read from file:
     ./pseudo/C.pbe-n-kjpaw_psl.1.0.0.UPF
     MD5 check sum: 5f16ad9a65e90284d1d834d4ab3b0f7d
     Pseudo is Projector augmented-wave + core cor, Zval =  4.0
     Generated using "atomic" code by A. Dal Corso v.6.3
     Shape of augmentation charge: PSQ
     Using radial grid of 1073 points,  4 beta functions with: 
                l(1) =   0
                l(2) =   0
                l(3) =   1
                l(4) =   1
     Q(r) pseudized with 0 coefficients 


     atomic species   valence    mass     pseudopotential
        B              3.00    10.00000     B ( 1.00)
        N              5.00    14.00000     N ( 1.00)
        C1             4.00    12.00000     C ( 1.00)
        C2             4.00    12.00000     C ( 1.00)
        C3             4.00    12.00000     C ( 1.00)

     Starting magnetic structure 
     atomic species   magnetization
        B            0.000
        N            0.000
        C1           1.000
        C2           0.000
        C3           0.000

      2 Sym. Ops. (no inversion) found



   Cartesian axes

     site n.     atom                  positions (alat units)
         1           B   tau(   1) = (  -0.0000529   0.0821409   0.5686018  )
         2           B   tau(   2) = (  -0.0714756   0.2061559   0.5686018  )
         3           B   tau(   3) = (  -0.1429706   0.3300495   0.5686018  )
         4           B   tau(   4) = (  -0.2144269   0.4537744   0.5686018  )
         5           B   tau(   5) = (  -0.2853634   0.5775884   0.5686018  )
         6           B   tau(   6) = (  -0.3566229   0.7015123   0.5686018  )
         7           B   tau(   7) = (  -0.4282124   0.8251742   0.5686018  )
         8           B   tau(   8) = (   0.1428054   0.0818218   0.5686018  )
         9           B   tau(   9) = (   0.0711145   0.2052878   0.5686018  )
        10           B   tau(  10) = (   0.0000498   0.3301808   0.5686018  )
        11           B   tau(  11) = (  -0.0717523   0.4535963   0.5686018  )
        12           B   tau(  12) = (  -0.1432073   0.5777218   0.5686018  )
        13           B   tau(  13) = (  -0.2140410   0.7015223   0.5686018  )
        14           B   tau(  14) = (  -0.2853233   0.8250069   0.5686018  )
        15           B   tau(  15) = (   0.2861383   0.0817999   0.5686018  )
        16           B   tau(  16) = (   0.2146361   0.2045489   0.5686018  )
        17           B   tau(  17) = (   0.1433124   0.3278169   0.5686018  )
        18           B   tau(  18) = (   0.0709593   0.4547428   0.5686018  )
        19           B   tau(  19) = (  -0.0013990   0.5787534   0.5686018  )
        20           B   tau(  20) = (  -0.0714098   0.7020788   0.5686018  )
        21           B   tau(  21) = (  -0.1423723   0.8252563   0.5686018  )
        22           B   tau(  22) = (   0.4288208   0.0826794   0.5686018  )
        23           B   tau(  23) = (   0.3571611   0.2063101   0.5686018  )
        24           B   tau(  24) = (   0.2844545   0.3289591   0.5686018  )
        25           C2  tau(  25) = (   0.2152009   0.4536991   0.5686018  )
        26           B   tau(  26) = (   0.1421763   0.5780945   0.5686018  )
        27           B   tau(  27) = (   0.0718135   0.7022596   0.5686018  )
        28           B   tau(  28) = (   0.0003221   0.8257304   0.5686018  )
        29           B   tau(  29) = (   0.5714932   0.0828756   0.5686018  )
        30           B   tau(  30) = (   0.5000167   0.2066435   0.5686018  )
        31           B   tau(  31) = (   0.4283771   0.3306220   0.5686018  )
        32           B   tau(  32) = (   0.3578559   0.4560941   0.5686018  )
        33           B   tau(  33) = (   0.2882741   0.5788978   0.5686018  )
        34           B   tau(  34) = (   0.2145955   0.7017850   0.5686018  )
        35           B   tau(  35) = (   0.1431990   0.8257100   0.5686018  )
        36           B   tau(  36) = (   0.7143752   0.0829451   0.5686018  )
        37           B   tau(  37) = (   0.6428972   0.2067688   0.5686018  )
        38           B   tau(  38) = (   0.5715655   0.3305696   0.5686018  )
        39           B   tau(  39) = (   0.5004264   0.4544528   0.5686018  )
        40           B   tau(  40) = (   0.4306892   0.5787637   0.5686018  )
        41           B   tau(  41) = (   0.3582884   0.7026876   0.5686018  )
        42           B   tau(  42) = (   0.2862416   0.8257403   0.5686018  )
        43           B   tau(  43) = (   0.8574610   0.0828903   0.5686018  )
        44           B   tau(  44) = (   0.7858707   0.2067788   0.5686018  )
        45           B   tau(  45) = (   0.7144898   0.3305530   0.5686018  )
        46           B   tau(  46) = (   0.6433236   0.4542091   0.5686018  )
        47           B   tau(  47) = (   0.5727440   0.5782155   0.5686018  )
        48           B   tau(  48) = (   0.5010586   0.7023345   0.5686018  )
        49           B   tau(  49) = (   0.4293531   0.8258939   0.5686018  )
        50           N   tau(  50) = (   0.0714166   0.0409319   0.5686018  )
        51           N   tau(  51) = (  -0.0002596   0.1644089   0.5686018  )
        52           N   tau(  52) = (  -0.0715671   0.2886969   0.5686018  )
        53           N   tau(  53) = (  -0.1432565   0.4125054   0.5686018  )
        54           N   tau(  54) = (  -0.2143548   0.5362871   0.5686018  )
        55           N   tau(  55) = (  -0.2853356   0.6601306   0.5686018  )
        56           N   tau(  56) = (  -0.3567472   0.7839138   0.5686018  )
        57           N   tau(  57) = (   0.2145138   0.0408840   0.5686018  )
        58           N   tau(  58) = (   0.1428219   0.1640655   0.5686018  )
        59           N   tau(  59) = (   0.0711618   0.2875059   0.5686018  )
        60           N   tau(  60) = (  -0.0007661   0.4126144   0.5686018  )
        61           N   tau(  61) = (  -0.0720848   0.5365739   0.5686018  )
        62           N   tau(  62) = (  -0.1427022   0.6603348   0.5686018  )
        63           N   tau(  63) = (  -0.2138421   0.7839611   0.5686018  )
        64           N   tau(  64) = (   0.3575646   0.0411562   0.5686018  )
        65           N   tau(  65) = (   0.2863135   0.1642406   0.5686018  )
        66           N   tau(  66) = (   0.2149936   0.2864384   0.5686018  )
        67           C1  tau(  67) = (   0.1453147   0.4126125   0.5686018  )
        68           N   tau(  68) = (   0.0697723   0.5376627   0.5686018  )
        69           N   tau(  69) = (  -0.0002134   0.6610588   0.5686018  )
        70           N   tau(  70) = (  -0.0711000   0.7844117   0.5686018  )
        71           N   tau(  71) = (   0.5001288   0.0416928   0.5686018  )
        72           N   tau(  72) = (   0.4286513   0.1653842   0.5686018  )
        73           N   tau(  73) = (   0.3566577   0.2894581   0.5686018  )
        74           N   tau(  74) = (   0.2838391   0.4140711   0.5686018  )
        75           C3  tau(  75) = (   0.2158401   0.5347663   0.5686018  )
        76           N   tau(  76) = (   0.1427981   0.6612748   0.5686018  )
        77           N   tau(  77) = (   0.0716473   0.7847296   0.5686018  )
        78           N   tau(  78) = (   0.6429146   0.0417912   0.5686018  )
        79           N   tau(  79) = (   0.5713896   0.1655312   0.5686018  )
        80           N   tau(  80) = (   0.4996885   0.2894504   0.5686018  )
        81           N   tau(  81) = (   0.4281664   0.4133148   0.5686018  )
        82           N   tau(  82) = (   0.3599495   0.5375094   0.5686018  )
        83           N   tau(  83) = (   0.2871092   0.6615376   0.5686018  )
        84           N   tau(  84) = (   0.2147132   0.7845490   0.5686018  )
        85           N   tau(  85) = (   0.7859000   0.0417662   0.5686018  )
        86           N   tau(  86) = (   0.7143297   0.1655272   0.5686018  )
        87           N   tau(  87) = (   0.6428562   0.2893150   0.5686018  )
        88           N   tau(  88) = (   0.5716143   0.4130035   0.5686018  )
        89           N   tau(  89) = (   0.5014358   0.5368435   0.5686018  )
        90           N   tau(  90) = (   0.4298416   0.6611983   0.5686018  )
        91           N   tau(  91) = (   0.3580035   0.7849389   0.5686018  )
        92           N   tau(  92) = (   0.9288707   0.0416619   0.5686018  )
        93           N   tau(  93) = (   0.8572950   0.1654260   0.5686018  )
        94           N   tau(  94) = (   0.7857807   0.2892425   0.5686018  )
        95           N   tau(  95) = (   0.7144730   0.4129478   0.5686018  )
        96           N   tau(  96) = (   0.6436556   0.5366803   0.5686018  )
        97           N   tau(  97) = (   0.5723659   0.6607021   0.5686018  )
        98           N   tau(  98) = (   0.5007758   0.7846039   0.5686018  )

     number of k points=     1
                       cart. coord. in units 2pi/alat
        k(    1) = (   0.0000000   0.0000000   0.0000000), wk =   1.0000000

     Dense  grid:   618389 G-vectors     FFT dimensions: ( 135, 135, 160)

     Occupations read from input 

      Spin-up

        1.0000   1.0000   1.0000   1.0000   1.0000   1.0000   1.0000   1.0000
        1.0000   1.0000   1.0000   1.0000   1.0000   1.0000   1.0000   1.0000
        1.0000   1.0000   1.0000   1.0000   1.0000   1.0000   1.0000   1.0000
        1.0000   1.0000   1.0000   1.0000   1.0000   1.0000   1.0000   1.0000
        1.0000   1.0000   1.0000   1.0000   1.0000   1.0000   1.0000   1.0000
        1.0000   1.0000   1.0000   1.0000   1.0000   1.0000   1.0000   1.0000
        1.0000   1.0000   1.0000   1.0000   1.0000   1.0000   1.0000   1.0000
        1.0000   1.0000   1.0000   1.0000   1.0000   1.0000   1.0000   1.0000
        1.0000   1.0000   1.0000   1.0000   1.0000   1.0000   1.0000   1.0000
        1.0000   1.0000   1.0000   1.0000   1.0000   1.0000   1.0000   1.0000
        1.0000   1.0000   1.0000   1.0000   1.0000   1.0000   1.0000   1.0000
        1.0000   1.0000   1.0000   1.0000   1.0000   1.0000   1.0000   1.0000
        1.0000   1.0000   1.0000   1.0000   1.0000   1.0000   1.0000   1.0000
        1.0000   1.0000   1.0000   1.0000   1.0000   1.0000   1.0000   1.0000
        1.0000   1.0000   1.0000   1.0000   1.0000   1.0000   1.0000   1.0000
        1.0000   1.0000   1.0000   1.0000   1.0000   1.0000   1.0000   1.0000
        1.0000   1.0000   1.0000   1.0000   1.0000   1.0000   1.0000   1.0000
        1.0000   1.0000   1.0000   1.0000   1.0000   1.0000   1.0000   1.0000
        1.0000   1.0000   1.0000   1.0000   1.0000   1.0000   1.0000   1.0000
        1.0000   1.0000   1.0000   1.0000   1.0000   1.0000   1.0000   1.0000
        1.0000   1.0000   1.0000   1.0000   1.0000   1.0000   1.0000   1.0000
        1.0000   1.0000   1.0000   1.0000   1.0000   1.0000   1.0000   1.0000
        1.0000   1.0000   1.0000   1.0000   1.0000   1.0000   1.0000   1.0000
        1.0000   1.0000   1.0000   1.0000   1.0000   1.0000   1.0000   1.0000
        1.0000   1.0000   1.0000   1.0000   0.0000   0.0000   0.0000   0.0000
        0.0000   0.0000   0.0000   0.0000   0.0000   0.0000   0.0000   0.0000
        0.0000   0.0000   0.0000   0.0000   0.0000   0.0000   0.0000   0.0000
        0.0000   0.0000   0.0000   0.0000   0.0000   0.0000   0.0000   0.0000
        0.0000   0.0000   0.0000   0.0000   0.0000   0.0000   0.0000   0.0000
        0.0000   0.0000   0.0000   0.0000   0.0000   0.0000   0.0000   0.0000
        0.0000   0.0000   0.0000   0.0000   0.0000

      Spin-down

        1.0000   1.0000   1.0000   1.0000   1.0000   1.0000   1.0000   1.0000
        1.0000   1.0000   1.0000   1.0000   1.0000   1.0000   1.0000   1.0000
        1.0000   1.0000   1.0000   1.0000   1.0000   1.0000   1.0000   1.0000
        1.0000   1.0000   1.0000   1.0000   1.0000   1.0000   1.0000   1.0000
        1.0000   1.0000   1.0000   1.0000   1.0000   1.0000   1.0000   1.0000
        1.0000   1.0000   1.0000   1.0000   1.0000   1.0000   1.0000   1.0000
        1.0000   1.0000   1.0000   1.0000   1.0000   1.0000   1.0000   1.0000
        1.0000   1.0000   1.0000   1.0000   1.0000   1.0000   1.0000   1.0000
        1.0000   1.0000   1.0000   1.0000   1.0000   1.0000   1.0000   1.0000
        1.0000   1.0000   1.0000   1.0000   1.0000   1.0000   1.0000   1.0000
        1.0000   1.0000   1.0000   1.0000   1.0000   1.0000   1.0000   1.0000
        1.0000   1.0000   1.0000   1.0000   1.0000   1.0000   1.0000   1.0000
        1.0000   1.0000   1.0000   1.0000   1.0000   1.0000   1.0000   1.0000
        1.0000   1.0000   1.0000   1.0000   1.0000   1.0000   1.0000   1.0000
        1.0000   1.0000   1.0000   1.0000   1.0000   1.0000   1.0000   1.0000
        1.0000   1.0000   1.0000   1.0000   1.0000   1.0000   1.0000   1.0000
        1.0000   1.0000   1.0000   1.0000   1.0000   1.0000   1.0000   1.0000
        1.0000   1.0000   1.0000   1.0000   1.0000   1.0000   1.0000   1.0000
        1.0000   1.0000   1.0000   1.0000   1.0000   1.0000   1.0000   1.0000
        1.0000   1.0000   1.0000   1.0000   1.0000   1.0000   1.0000   1.0000
        1.0000   1.0000   1.0000   1.0000   1.0000   1.0000   1.0000   1.0000
        1.0000   1.0000   1.0000   1.0000   1.0000   1.0000   1.0000   1.0000
        1.0000   1.0000   1.0000   1.0000   1.0000   1.0000   1.0000   1.0000
        1.0000   1.0000   1.0000   1.0000   1.0000   1.0000   1.0000   1.0000
        1.0000   1.0000   0.0000   1.0000   0.0000   0.0000   0.0000   0.0000
        0.0000   0.0000   0.0000   0.0000   0.0000   0.0000   0.0000   0.0000
        0.0000   0.0000   0.0000   0.0000   0.0000   0.0000   0.0000   0.0000
        0.0000   0.0000   0.0000   0.0000   0.0000   0.0000   0.0000   0.0000
        0.0000   0.0000   0.0000   0.0000   0.0000   0.0000   0.0000   0.0000
        0.0000   0.0000   0.0000   0.0000   0.0000   0.0000   0.0000   0.0000
        0.0000   0.0000   0.0000   0.0000   0.0000

     Estimated max dynamical RAM per process >     122.27 MB

     Estimated total dynamical RAM >       7.64 GB
     Generating pointlists ...
     new r_m :   0.0336 (alat units)  1.1165 (a.u.) for type    1
     new r_m :   0.0327 (alat units)  1.0865 (a.u.) for type    2
     new r_m :   0.0334 (alat units)  1.1114 (a.u.) for type    3
     new r_m :   0.0327 (alat units)  1.0865 (a.u.) for type    4
     new r_m :   0.0334 (alat units)  1.1114 (a.u.) for type    5

     Check: negative core charge=   -0.000006

     Initial potential from superposition of free atoms

     starting charge  390.98597, renormalised to  391.00000

     negative rho (up, down):  5.500E-02 5.947E-02
     Starting wfcs are  392 randomized atomic wfcs
     Checking if some PAW data can be deallocated... 

     total cpu time spent up to now is        8.3 secs

     Self-consistent Calculation

     iteration #  1     ecut=    40.00 Ry     beta= 0.70
     CG style diagonalization
     ethr =  1.00E-02,  avg # of iterations =  3.1

     negative rho (up, down):  3.257E-01 8.125E-03

     total cpu time spent up to now is       45.3 secs

     total energy              =   -1933.41322613 Ry
     Harris-Foulkes estimate   =   -1946.47529030 Ry
     estimated scf accuracy    <      19.91018022 Ry

     total magnetization       =     1.00 Bohr mag/cell
     absolute magnetization    =     1.88 Bohr mag/cell

     iteration #  2     ecut=    40.00 Ry     beta= 0.70
     CG style diagonalization
     ethr =  5.09E-03,  avg # of iterations =  4.0

     negative rho (up, down):  3.615E-01 5.404E-03

     total cpu time spent up to now is       81.0 secs

     total energy              =   -1937.56866892 Ry
     Harris-Foulkes estimate   =   -1943.88402419 Ry
     estimated scf accuracy    <      12.32901316 Ry

     total magnetization       =     1.00 Bohr mag/cell
     absolute magnetization    =     1.57 Bohr mag/cell

     iteration #  3     ecut=    40.00 Ry     beta= 0.70
     CG style diagonalization
     ethr =  3.15E-03,  avg # of iterations =  3.8

     negative rho (up, down):  4.160E-01 4.744E-03

     total cpu time spent up to now is      114.5 secs

     total energy              =   -1940.09332917 Ry
     Harris-Foulkes estimate   =   -1940.55005593 Ry
     estimated scf accuracy    <       0.77997960 Ry

     total magnetization       =     1.00 Bohr mag/cell
     absolute magnetization    =     1.29 Bohr mag/cell

     iteration #  4     ecut=    40.00 Ry     beta= 0.70
     CG style diagonalization
     ethr =  1.99E-04,  avg # of iterations =  4.4

     negative rho (up, down):  4.585E-01 3.879E-03

     total cpu time spent up to now is      154.8 secs

     total energy              =   -1940.25344322 Ry
     Harris-Foulkes estimate   =   -1940.52695209 Ry
     estimated scf accuracy    <       0.73235658 Ry

     total magnetization       =     1.00 Bohr mag/cell
     absolute magnetization    =     1.39 Bohr mag/cell

     iteration #  5     ecut=    40.00 Ry     beta= 0.70
     CG style diagonalization
     c_bands:  2 eigenvalues not converged
     ethr =  1.87E-04,  avg # of iterations =  3.3

     negative rho (up, down):  4.709E-01 3.575E-03

     total cpu time spent up to now is      182.5 secs

     total energy              =   -1940.38463562 Ry
     Harris-Foulkes estimate   =   -1940.39946403 Ry
     estimated scf accuracy    <       0.05238018 Ry

     total magnetization       =     1.00 Bohr mag/cell
     absolute magnetization    =     1.22 Bohr mag/cell

     iteration #  6     ecut=    40.00 Ry     beta= 0.70
     CG style diagonalization
     c_bands:  3 eigenvalues not converged
     c_bands:  3 eigenvalues not converged
     ethr =  1.34E-05,  avg # of iterations =  4.1

     negative rho (up, down):  4.808E-01 3.677E-03

     total cpu time spent up to now is      219.8 secs

     total energy              =   -1940.39018729 Ry
     Harris-Foulkes estimate   =   -1940.39346445 Ry
     estimated scf accuracy    <       0.01363439 Ry

     total magnetization       =     1.00 Bohr mag/cell
     absolute magnetization    =     1.20 Bohr mag/cell

     iteration #  7     ecut=    40.00 Ry     beta= 0.70
     CG style diagonalization
     c_bands:  5 eigenvalues not converged
     c_bands:  4 eigenvalues not converged
     ethr =  3.49E-06,  avg # of iterations =  5.8

     negative rho (up, down):  4.841E-01 3.831E-03

     total cpu time spent up to now is      271.0 secs

     total energy              =   -1940.39336059 Ry
     Harris-Foulkes estimate   =   -1940.39381232 Ry
     estimated scf accuracy    <       0.00218491 Ry

     total magnetization       =     1.00 Bohr mag/cell
     absolute magnetization    =     1.18 Bohr mag/cell

     iteration #  8     ecut=    40.00 Ry     beta= 0.70
     CG style diagonalization
     c_bands:  2 eigenvalues not converged
     c_bands:  5 eigenvalues not converged
     ethr =  5.59E-07,  avg # of iterations =  4.0

     negative rho (up, down):  4.844E-01 3.913E-03

     total cpu time spent up to now is      306.3 secs

     total energy              =   -1940.39376055 Ry
     Harris-Foulkes estimate   =   -1940.39420914 Ry
     estimated scf accuracy    <       0.00127613 Ry

     total magnetization       =     1.00 Bohr mag/cell
     absolute magnetization    =     1.17 Bohr mag/cell

     iteration #  9     ecut=    40.00 Ry     beta= 0.70
     CG style diagonalization
     c_bands:  2 eigenvalues not converged
     c_bands:  2 eigenvalues not converged
     ethr =  3.26E-07,  avg # of iterations =  3.5

     negative rho (up, down):  4.844E-01 3.972E-03

     total cpu time spent up to now is      335.8 secs

     total energy              =   -1940.39401859 Ry
     Harris-Foulkes estimate   =   -1940.39405189 Ry
     estimated scf accuracy    <       0.00021202 Ry

     total magnetization       =     1.00 Bohr mag/cell
     absolute magnetization    =     1.17 Bohr mag/cell

     iteration # 10     ecut=    40.00 Ry     beta= 0.70
     CG style diagonalization
     c_bands:  1 eigenvalues not converged
     ethr =  5.42E-08,  avg # of iterations =  3.7

     negative rho (up, down):  4.844E-01 4.012E-03

     total cpu time spent up to now is      367.7 secs

     total energy              =   -1940.39408608 Ry
     Harris-Foulkes estimate   =   -1940.39408471 Ry
     estimated scf accuracy    <       0.00003778 Ry

     total magnetization       =     1.00 Bohr mag/cell
     absolute magnetization    =     1.17 Bohr mag/cell

     iteration # 11     ecut=    40.00 Ry     beta= 0.70
     CG style diagonalization
     ethr =  9.66E-09,  avg # of iterations =  3.7

     negative rho (up, down):  4.844E-01 4.022E-03

     total cpu time spent up to now is      400.2 secs

     total energy              =   -1940.39409981 Ry
     Harris-Foulkes estimate   =   -1940.39410082 Ry
     estimated scf accuracy    <       0.00001177 Ry

     total magnetization       =     1.00 Bohr mag/cell
     absolute magnetization    =     1.17 Bohr mag/cell

     iteration # 12     ecut=    40.00 Ry     beta= 0.70
     CG style diagonalization
     ethr =  3.01E-09,  avg # of iterations =  3.6

     negative rho (up, down):  4.844E-01 4.029E-03

     total cpu time spent up to now is      430.7 secs

     total energy              =   -1940.39410388 Ry
     Harris-Foulkes estimate   =   -1940.39410306 Ry
     estimated scf accuracy    <       0.00000223 Ry

     total magnetization       =     1.00 Bohr mag/cell
     absolute magnetization    =     1.17 Bohr mag/cell

     iteration # 13     ecut=    40.00 Ry     beta= 0.70
     CG style diagonalization
     ethr =  5.71E-10,  avg # of iterations =  4.0

     negative rho (up, down):  4.844E-01 4.032E-03

     total cpu time spent up to now is      466.0 secs

     total energy              =   -1940.39410517 Ry
     Harris-Foulkes estimate   =   -1940.39410539 Ry
     estimated scf accuracy    <       0.00000140 Ry

     total magnetization       =     1.00 Bohr mag/cell
     absolute magnetization    =     1.17 Bohr mag/cell

     iteration # 14     ecut=    40.00 Ry     beta= 0.70
     CG style diagonalization
     ethr =  3.59E-10,  avg # of iterations =  3.3

     negative rho (up, down):  4.844E-01 4.026E-03

     total cpu time spent up to now is      493.8 secs

     total energy              =   -1940.39410538 Ry
     Harris-Foulkes estimate   =   -1940.39410545 Ry
     estimated scf accuracy    <       0.00000031 Ry

     total magnetization       =     1.00 Bohr mag/cell
     absolute magnetization    =     1.17 Bohr mag/cell

     iteration # 15     ecut=    40.00 Ry     beta= 0.70
     CG style diagonalization
     ethr =  8.01E-11,  avg # of iterations =  3.6

     negative rho (up, down):  4.844E-01 4.025E-03

     total cpu time spent up to now is      525.1 secs

     total energy              =   -1940.39410546 Ry
     Harris-Foulkes estimate   =   -1940.39410545 Ry
     estimated scf accuracy    <       0.00000003 Ry

     total magnetization       =     1.00 Bohr mag/cell
     absolute magnetization    =     1.17 Bohr mag/cell

     iteration # 16     ecut=    40.00 Ry     beta= 0.70
     CG style diagonalization
     ethr =  8.36E-12,  avg # of iterations =  3.9

     negative rho (up, down):  4.844E-01 4.025E-03

     total cpu time spent up to now is      559.6 secs

     total energy              =   -1940.39410549 Ry
     Harris-Foulkes estimate   =   -1940.39410548 Ry
     estimated scf accuracy    <       0.00000001 Ry

     total magnetization       =     1.00 Bohr mag/cell
     absolute magnetization    =     1.17 Bohr mag/cell

     iteration # 17     ecut=    40.00 Ry     beta= 0.70
     CG style diagonalization
     ethr =  2.87E-12,  avg # of iterations =  3.6

     negative rho (up, down):  4.844E-01 4.023E-03

     total cpu time spent up to now is      591.4 secs

     total energy              =   -1940.39410549 Ry
     Harris-Foulkes estimate   =   -1940.39410549 Ry
     estimated scf accuracy    <          2.5E-09 Ry

     total magnetization       =     1.00 Bohr mag/cell
     absolute magnetization    =     1.17 Bohr mag/cell

     iteration # 18     ecut=    40.00 Ry     beta= 0.70
     CG style diagonalization
     ethr =  6.48E-13,  avg # of iterations =  3.8

     negative rho (up, down):  4.844E-01 4.022E-03

     total cpu time spent up to now is      624.7 secs

     total energy              =   -1940.39410549 Ry
     Harris-Foulkes estimate   =   -1940.39410549 Ry
     estimated scf accuracy    <          1.4E-09 Ry

     total magnetization       =     1.00 Bohr mag/cell
     absolute magnetization    =     1.17 Bohr mag/cell

     iteration # 19     ecut=    40.00 Ry     beta= 0.70
     CG style diagonalization
     ethr =  3.62E-13,  avg # of iterations =  3.5

     negative rho (up, down):  4.844E-01 4.020E-03

     total cpu time spent up to now is      654.4 secs

     total energy              =   -1940.39410549 Ry
     Harris-Foulkes estimate   =   -1940.39410549 Ry
     estimated scf accuracy    <          6.8E-10 Ry

     total magnetization       =     1.00 Bohr mag/cell
     absolute magnetization    =     1.17 Bohr mag/cell

     iteration # 20     ecut=    40.00 Ry     beta= 0.70
     CG style diagonalization
     ethr =  1.75E-13,  avg # of iterations =  3.3

     negative rho (up, down):  4.844E-01 4.021E-03

     total cpu time spent up to now is      682.5 secs

     total energy              =   -1940.39410549 Ry
     Harris-Foulkes estimate   =   -1940.39410549 Ry
     estimated scf accuracy    <          5.4E-11 Ry

     total magnetization       =     1.00 Bohr mag/cell
     absolute magnetization    =     1.17 Bohr mag/cell

     iteration # 21     ecut=    40.00 Ry     beta= 0.70
     CG style diagonalization
     ethr =  1.00E-13,  avg # of iterations =  3.1

     negative rho (up, down):  4.844E-01 4.020E-03

     total cpu time spent up to now is      708.1 secs

     total energy              =   -1940.39410549 Ry
     Harris-Foulkes estimate   =   -1940.39410549 Ry
     estimated scf accuracy    <          1.6E-11 Ry

     total magnetization       =     1.00 Bohr mag/cell
     absolute magnetization    =     1.17 Bohr mag/cell

     iteration # 22     ecut=    40.00 Ry     beta= 0.70
     CG style diagonalization
     ethr =  1.00E-13,  avg # of iterations =  3.0

     negative rho (up, down):  4.844E-01 4.021E-03

     total cpu time spent up to now is      733.0 secs

     total energy              =   -1940.39410549 Ry
     Harris-Foulkes estimate   =   -1940.39410549 Ry
     estimated scf accuracy    <          2.3E-12 Ry

     total magnetization       =     1.00 Bohr mag/cell
     absolute magnetization    =     1.17 Bohr mag/cell

     iteration # 23     ecut=    40.00 Ry     beta= 0.70
     CG style diagonalization
     ethr =  1.00E-13,  avg # of iterations =  3.0

     negative rho (up, down):  4.844E-01 4.020E-03

     total cpu time spent up to now is      758.1 secs

     total energy              =   -1940.39410549 Ry
     Harris-Foulkes estimate   =   -1940.39410549 Ry
     estimated scf accuracy    <          1.8E-12 Ry

     total magnetization       =     1.00 Bohr mag/cell
     absolute magnetization    =     1.17 Bohr mag/cell

     iteration # 24     ecut=    40.00 Ry     beta= 0.70
     CG style diagonalization
     ethr =  1.00E-13,  avg # of iterations =  3.0

     negative rho (up, down):  4.844E-01 4.021E-03
 
     Magnetic moment per site:
     atom:    1    charge:    0.8514    magn:   -0.0000    constr:    0.0000
     atom:    2    charge:    0.8469    magn:    0.0003    constr:    0.0000
     atom:    3    charge:    0.8484    magn:   -0.0004    constr:    0.0000
     atom:    4    charge:    0.8498    magn:    0.0002    constr:    0.0000
     atom:    5    charge:    0.8523    magn:    0.0000    constr:    0.0000
     atom:    6    charge:    0.8510    magn:    0.0000    constr:    0.0000
     atom:    7    charge:    0.8519    magn:    0.0003    constr:    0.0000
     atom:    8    charge:    0.8509    magn:   -0.0000    constr:    0.0000
     atom:    9    charge:    0.8517    magn:   -0.0000    constr:    0.0000
     atom:   10    charge:    0.8449    magn:   -0.0009    constr:    0.0000
     atom:   11    charge:    0.8493    magn:   -0.0004    constr:    0.0000
     atom:   12    charge:    0.8516    magn:   -0.0004    constr:    0.0000
     atom:   13    charge:    0.8519    magn:    0.0002    constr:    0.0000
     atom:   14    charge:    0.8510    magn:    0.0000    constr:    0.0000
     atom:   15    charge:    0.8509    magn:    0.0003    constr:    0.0000
     atom:   16    charge:    0.8560    magn:   -0.0003    constr:    0.0000
     atom:   17    charge:    0.8626    magn:   -0.0018    constr:    0.0000
     atom:   18    charge:    0.8538    magn:   -0.0053    constr:    0.0000
     atom:   19    charge:    0.8550    magn:   -0.0018    constr:    0.0000
     atom:   20    charge:    0.8516    magn:   -0.0004    constr:    0.0000
     atom:   21    charge:    0.8523    magn:    0.0000    constr:    0.0000
     atom:   22    charge:    0.8475    magn:    0.0001    constr:    0.0000
     atom:   23    charge:    0.8443    magn:   -0.0004    constr:    0.0000
     atom:   24    charge:    0.8413    magn:    0.0009    constr:    0.0000
     atom:   25    charge:    1.5794    magn:    0.0322    constr:    0.0000
     atom:   26    charge:    0.8538    magn:   -0.0053    constr:    0.0000
     atom:   27    charge:    0.8493    magn:   -0.0004    constr:    0.0000
     atom:   28    charge:    0.8498    magn:    0.0002    constr:    0.0000
     atom:   29    charge:    0.8477    magn:    0.0000    constr:    0.0000
     atom:   30    charge:    0.8477    magn:    0.0005    constr:    0.0000
     atom:   31    charge:    0.8463    magn:    0.0018    constr:    0.0000
     atom:   32    charge:    0.8413    magn:    0.0009    constr:    0.0000
     atom:   33    charge:    0.8626    magn:   -0.0018    constr:    0.0000
     atom:   34    charge:    0.8449    magn:   -0.0009    constr:    0.0000
     atom:   35    charge:    0.8484    magn:   -0.0004    constr:    0.0000
     atom:   36    charge:    0.8473    magn:    0.0000    constr:    0.0000
     atom:   37    charge:    0.8465    magn:    0.0003    constr:    0.0000
     atom:   38    charge:    0.8477    magn:    0.0005    constr:    0.0000
     atom:   39    charge:    0.8443    magn:   -0.0004    constr:    0.0000
     atom:   40    charge:    0.8560    magn:   -0.0003    constr:    0.0000
     atom:   41    charge:    0.8517    magn:   -0.0000    constr:    0.0000
     atom:   42    charge:    0.8469    magn:    0.0003    constr:    0.0000
     atom:   43    charge:    0.8467    magn:    0.0002    constr:    0.0000
     atom:   44    charge:    0.8473    magn:    0.0000    constr:    0.0000
     atom:   45    charge:    0.8477    magn:    0.0000    constr:    0.0000
     atom:   46    charge:    0.8475    magn:    0.0001    constr:    0.0000
     atom:   47    charge:    0.8509    magn:    0.0003    constr:    0.0000
     atom:   48    charge:    0.8509    magn:   -0.0000    constr:    0.0000
     atom:   49    charge:    0.8514    magn:   -0.0000    constr:    0.0000
     atom:   50    charge:    2.6730    magn:    0.0004    constr:    0.0000
     atom:   51    charge:    2.6715    magn:    0.0003    constr:    0.0000
     atom:   52    charge:    2.6614    magn:    0.0047    constr:    0.0000
     atom:   53    charge:    2.6708    magn:    0.0034    constr:    0.0000
     atom:   54    charge:    2.6727    magn:    0.0001    constr:    0.0000
     atom:   55    charge:    2.6641    magn:    0.0002    constr:    0.0000
     atom:   56    charge:    2.6668    magn:   -0.0000    constr:    0.0000
     atom:   57    charge:    2.6688    magn:   -0.0001    constr:    0.0000
     atom:   58    charge:    2.6705    magn:    0.0034    constr:    0.0000
     atom:   59    charge:    2.6587    magn:    0.0241    constr:    0.0000
     atom:   60    charge:    2.6639    magn:    0.0002    constr:    0.0000
     atom:   61    charge:    2.6688    magn:    0.0106    constr:    0.0000
     atom:   62    charge:    2.6651    magn:    0.0053    constr:    0.0000
     atom:   63    charge:    2.6641    magn:    0.0002    constr:    0.0000
     atom:   64    charge:    2.6723    magn:    0.0003    constr:    0.0000
     atom:   65    charge:    2.6724    magn:    0.0041    constr:    0.0000
     atom:   66    charge:    2.6760    magn:    0.0004    constr:    0.0000
     atom:   67    charge:    1.7250    magn:    0.0431    constr:    0.0000
     atom:   68    charge:    2.6548    magn:    0.0749    constr:    0.0000
     atom:   69    charge:    2.6688    magn:    0.0106    constr:    0.0000
     atom:   70    charge:    2.6727    magn:    0.0001    constr:    0.0000
     atom:   71    charge:    2.6719    magn:    0.0003    constr:    0.0000
     atom:   72    charge:    2.6669    magn:   -0.0001    constr:    0.0000
     atom:   73    charge:    2.6627    magn:    0.0101    constr:    0.0000
     atom:   74    charge:    2.6271    magn:    0.1094    constr:    0.0000
     atom:   75    charge:    1.7250    magn:    0.0431    constr:    0.0000
     atom:   76    charge:    2.6639    magn:    0.0002    constr:    0.0000
     atom:   77    charge:    2.6708    magn:    0.0034    constr:    0.0000
     atom:   78    charge:    2.6697    magn:    0.0002    constr:    0.0000
     atom:   79    charge:    2.6653    magn:    0.0001    constr:    0.0000
     atom:   80    charge:    2.6591    magn:    0.0049    constr:    0.0000
     atom:   81    charge:    2.6627    magn:    0.0101    constr:    0.0000
     atom:   82    charge:    2.6760    magn:    0.0004    constr:    0.0000
     atom:   83    charge:    2.6587    magn:    0.0241    constr:    0.0000
     atom:   84    charge:    2.6614    magn:    0.0047    constr:    0.0000
     atom:   85    charge:    2.6684    magn:    0.0005    constr:    0.0000
     atom:   86    charge:    2.6678    magn:    0.0001    constr:    0.0000
     atom:   87    charge:    2.6653    magn:    0.0001    constr:    0.0000
     atom:   88    charge:    2.6669    magn:   -0.0001    constr:    0.0000
     atom:   89    charge:    2.6724    magn:    0.0041    constr:    0.0000
     atom:   90    charge:    2.6705    magn:    0.0034    constr:    0.0000
     atom:   91    charge:    2.6715    magn:    0.0003    constr:    0.0000
     atom:   92    charge:    2.6733    magn:    0.0001    constr:    0.0000
     atom:   93    charge:    2.6684    magn:    0.0005    constr:    0.0000
     atom:   94    charge:    2.6697    magn:    0.0002    constr:    0.0000
     atom:   95    charge:    2.6719    magn:    0.0003    constr:    0.0000
     atom:   96    charge:    2.6723    magn:    0.0003    constr:    0.0000
     atom:   97    charge:    2.6688    magn:   -0.0001    constr:    0.0000
     atom:   98    charge:    2.6730    magn:    0.0004    constr:    0.0000

     total cpu time spent up to now is      782.9 secs

     End of self-consistent calculation

 ------ SPIN UP ------------


          k = 0.0000 0.0000 0.0000 ( 77359 PWs)   bands (ev):

   -22.0130 -21.6836 -21.4209 -21.4022 -21.3636 -21.2989 -21.2744 -20.9088
   -20.6728 -20.6600 -20.6136 -20.5489 -20.5473 -20.4342 -20.2992 -20.2874
   -20.2611 -20.1354 -20.0802 -19.6158 -19.4541 -19.4316 -19.3931 -19.3895
   -19.3749 -19.3659 -19.3534 -19.3113 -19.2867 -19.1778 -19.1546 -19.0339
   -18.9709 -18.9630 -18.9310 -18.7673 -18.7664 -18.5640 -18.5437 -18.5392
   -18.5064 -18.4611 -18.4058 -18.3748 -18.3622 -18.3133 -18.3000 -16.8130
   -14.7623 -13.1921 -12.7938 -12.7879 -12.7431 -12.7189 -12.7151 -12.6339
   -12.5839 -12.5267 -12.5208 -12.4562 -12.3942 -12.1670 -12.0610 -12.0560
   -12.0157 -11.9819 -11.9326 -11.5824 -11.4227 -11.4211 -11.4072 -11.3946
   -11.3603 -11.3494 -11.3342 -11.3005 -11.2941 -11.0834 -11.0013 -10.8860
   -10.7238 -10.7079 -10.6639 -10.6282 -10.4705 -10.0769 -10.0195 -10.0043
    -9.9337  -9.8787  -9.7919  -9.4216  -9.3721  -9.3459  -9.3016  -9.2893
    -9.2790  -9.2048  -9.0785  -9.0304  -8.9621  -8.9086  -8.9064  -8.8977
    -8.8975  -8.8879  -8.8714  -8.8569  -8.8543  -8.8321  -8.8212  -8.8111
    -8.8012  -8.7713  -8.7587  -8.7252  -8.7137  -8.7033  -8.6435  -8.6204
    -8.4623  -8.4342  -8.2413  -8.1738  -8.1717  -8.0740  -8.0677  -8.0363
    -7.8429  -7.8352  -7.8068  -7.7847  -7.7253  -7.7135  -7.5834  -7.5134
    -7.4990  -7.4859  -7.4858  -7.4565  -7.4303  -7.3924  -7.3776  -7.3443
    -7.3381  -7.3155  -7.3150  -7.2250  -7.2227  -7.2223  -7.1508  -7.0368
    -7.0098  -6.9704  -6.8753  -6.7938  -6.6166  -6.4796  -6.3369  -6.1887
    -6.1778  -6.1539  -6.1272  -6.1018  -6.0627  -6.0568  -6.0508  -6.0295
    -6.0284  -6.0235  -6.0015  -5.9473  -5.8781  -5.7843  -5.7721  -5.6391
    -5.5387  -5.4473  -5.4451  -5.4382  -5.3055  -5.2237  -4.9632  -4.9551
    -4.8167  -4.8042  -4.7719  -4.7405  -4.6724  -4.6535  -4.5591  -4.5173
    -4.5012  -4.4730  -4.3886  -3.0799   0.0518   0.1783   0.6496   0.6631
     0.7079   0.7216   0.7271   0.7408   0.7735   0.7966   0.7980   0.7988
     0.8172   0.8332   0.8547   0.8694   0.8761   0.9136   0.9441   0.9449
     1.0288   1.1409   1.2061   1.2429   1.2768   1.3063   1.3139   1.3242
     1.3290   1.3422   1.3507   1.3751   1.4140   1.4282   1.4330   1.4409
     1.4495   1.4653   1.4901   1.8838   2.0614   2.0907   2.0935   2.1159
     2.1181   2.1463   2.1502   2.2107   2.2549

 ------ SPIN DOWN ----------


          k = 0.0000 0.0000 0.0000 ( 77359 PWs)   bands (ev):

   -21.8910 -21.6512 -21.4177 -21.3976 -21.3591 -21.2721 -21.2667 -20.8759
   -20.6664 -20.6481 -20.6100 -20.5415 -20.5367 -20.4257 -20.2939 -20.2795
   -20.2380 -20.1083 -20.0735 -19.5840 -19.4455 -19.4244 -19.3888 -19.3831
   -19.3706 -19.3622 -19.3403 -19.2905 -19.2827 -19.1608 -19.1437 -19.0259
   -18.9626 -18.9576 -18.9057 -18.7608 -18.7513 -18.5566 -18.5363 -18.5247
   -18.4964 -18.4547 -18.3986 -18.3645 -18.3566 -18.3021 -18.2717 -16.6221
   -14.6563 -13.1518 -12.7903 -12.7814 -12.7407 -12.7170 -12.7135 -12.6299
   -12.5792 -12.5226 -12.5171 -12.4444 -12.3883 -12.1596 -12.0560 -12.0516
   -12.0125 -11.9736 -11.9235 -11.5691 -11.4143 -11.4106 -11.4046 -11.3868
   -11.3585 -11.3406 -11.3292 -11.2905 -11.2859 -11.0632 -10.9888 -10.8785
   -10.7205 -10.7067 -10.6580 -10.6204 -10.4651 -10.0648 -10.0122  -9.9949
    -9.9228  -9.8648  -9.7817  -9.4129  -9.3366  -9.3255  -9.2938  -9.2844
    -9.2754  -9.2024  -9.0675  -8.9487  -8.9192  -8.9048  -8.9019  -8.8948
    -8.8919  -8.8818  -8.8613  -8.8534  -8.8481  -8.8204  -8.8181  -8.8051
    -8.7919  -8.7658  -8.7561  -8.7125  -8.6980  -8.6334  -8.6159  -8.6121
    -8.4578  -8.4165  -8.2387  -8.1712  -8.1698  -8.0642  -8.0512  -7.9184
    -7.8303  -7.8092  -7.7985  -7.7778  -7.7003  -7.6883  -7.5752  -7.5058
    -7.4927  -7.4819  -7.4552  -7.4368  -7.4293  -7.3890  -7.3723  -7.3337
    -7.3179  -7.3100  -7.2766  -7.2142  -7.2107  -7.1622  -7.1357  -7.0343
    -6.9962  -6.9673  -6.8568  -6.7771  -6.6063  -6.4716  -6.2344  -6.1827
    -6.1721  -6.1472  -6.1091  -6.0873  -6.0508  -6.0430  -6.0387  -6.0218
    -6.0149  -6.0028  -5.9444  -5.9378  -5.8176  -5.7646  -5.7626  -5.6311
    -5.5101  -5.4371  -5.4312  -5.3917  -5.2474  -5.1985  -4.9261  -4.9190
    -4.7830  -4.7791  -4.7533  -4.7193  -4.6566  -4.6060  -4.5415  -4.5070
    -4.4743  -4.4524  -4.0635  -2.8684   0.1799   0.2023   0.6696   0.6829
     0.7089   0.7273   0.7418   0.7442   0.7754   0.7968   0.7989   0.8036
     0.8181   0.8345   0.8583   0.8769   0.8797   0.9241   0.9507   0.9520
     1.0342   1.1630   1.2184   1.2556   1.2778   1.3066   1.3140   1.3288
     1.3343   1.3431   1.3586   1.3820   1.4179   1.4284   1.4330   1.4410
     1.4500   1.4656   1.4932   1.8857   2.0931   2.0942   2.1187   2.1208
     2.1269   2.2698   2.2940   2.3592   2.4442

     highest occupied, lowest unoccupied level (ev):    -3.0799   -4.0635

!    total energy              =   -1940.39410549 Ry
     Harris-Foulkes estimate   =   -1940.39410549 Ry
     estimated scf accuracy    <          4.9E-13 Ry

     total all-electron energy =     -7770.218582 Ry

     The total energy is the sum of the following terms:

     one-electron contribution =  -10656.58731456 Ry
     hartree contribution      =    5413.96593273 Ry
     xc contribution           =    -430.78351622 Ry
     ewald contribution        =    4376.46399725 Ry
     DFT-D3 Dispersion         =      -0.27035068 Ry
     one-center paw contrib.   =    -643.18285402 Ry

     total magnetization       =     1.00 Bohr mag/cell
     absolute magnetization    =     1.17 Bohr mag/cell

     convergence has been achieved in  24 iterations

     negative rho (up, down):  4.844E-01 4.021E-03

     Forces acting on atoms (cartesian axes, Ry/au):

     atom    1 type  1   force =     0.00000348   -0.00000330    0.00000000
     atom    2 type  1   force =     0.00000566   -0.00000573    0.00000000
     atom    3 type  1   force =     0.00000073   -0.00000385    0.00000000
     atom    4 type  1   force =    -0.00000643   -0.00001153    0.00000000
     atom    5 type  1   force =    -0.00000680   -0.00001421    0.00000000
     atom    6 type  1   force =     0.00000280   -0.00000653    0.00000000
     atom    7 type  1   force =     0.00000724   -0.00000487    0.00000000
     atom    8 type  1   force =     0.00000542   -0.00000576    0.00000000
     atom    9 type  1   force =     0.00000596   -0.00001640    0.00000000
     atom   10 type  1   force =     0.00000700   -0.00000843    0.00000000
     atom   11 type  1   force =    -0.00000579    0.00000070    0.00000000
     atom   12 type  1   force =    -0.00000310   -0.00000601    0.00000000
     atom   13 type  1   force =     0.00000471   -0.00000266    0.00000000
     atom   14 type  1   force =     0.00000709   -0.00000008    0.00000000
     atom   15 type  1   force =     0.00000648    0.00000498    0.00000000
     atom   16 type  1   force =     0.00000086   -0.00000925    0.00000000
     atom   17 type  1   force =     0.00000420   -0.00000278    0.00000000
     atom   18 type  1   force =     0.00000503    0.00000294    0.00000000
     atom   19 type  1   force =    -0.00000502    0.00000415    0.00000000
     atom   20 type  1   force =     0.00000519    0.00000520    0.00000000
     atom   21 type  1   force =     0.00000936    0.00001262    0.00000000
     atom   22 type  1   force =     0.00000164    0.00001251    0.00000000
     atom   23 type  1   force =    -0.00001145    0.00000292    0.00000000
     atom   24 type  1   force =    -0.00001694    0.00000382    0.00000000
     atom   25 type  4   force =     0.00000845    0.00001402    0.00000000
     atom   26 type  1   force =     0.00000588   -0.00000412    0.00000000
     atom   27 type  1   force =    -0.00000078    0.00000352    0.00000000
     atom   28 type  1   force =     0.00000761    0.00001060    0.00000000
     atom   29 type  1   force =    -0.00000083    0.00000642    0.00000000
     atom   30 type  1   force =    -0.00001263    0.00000683    0.00000000
     atom   31 type  1   force =    -0.00001929    0.00001267    0.00000000
     atom   32 type  1   force =    -0.00001258    0.00001857    0.00000000
     atom   33 type  1   force =     0.00000397   -0.00000244    0.00000000
     atom   34 type  1   force =     0.00001151   -0.00000417    0.00000000
     atom   35 type  1   force =     0.00000512    0.00000006    0.00000000
     atom   36 type  1   force =    -0.00000292    0.00000113    0.00000000
     atom   37 type  1   force =    -0.00000582    0.00000312    0.00000000
     atom   38 type  1   force =    -0.00001257    0.00000799    0.00000000
     atom   39 type  1   force =    -0.00000932    0.00000920    0.00000000
     atom   40 type  1   force =     0.00000651    0.00000386    0.00000000
     atom   41 type  1   force =     0.00001533    0.00000107    0.00000000
     atom   42 type  1   force =     0.00000695   -0.00000369    0.00000000
     atom   43 type  1   force =    -0.00000197    0.00000043    0.00000000
     atom   44 type  1   force =    -0.00000307    0.00000150    0.00000000
     atom   45 type  1   force =    -0.00000663   -0.00000220    0.00000000
     atom   46 type  1   force =    -0.00001062   -0.00000753    0.00000000
     atom   47 type  1   force =    -0.00000200   -0.00000801    0.00000000
     atom   48 type  1   force =     0.00000569   -0.00000306    0.00000000
     atom   49 type  1   force =     0.00000357   -0.00000264    0.00000000
     atom   50 type  2   force =     0.00000621   -0.00000668    0.00000000
     atom   51 type  2   force =    -0.00000109   -0.00000026    0.00000000
     atom   52 type  2   force =     0.00000785    0.00000560    0.00000000
     atom   53 type  2   force =     0.00000380   -0.00000284    0.00000000
     atom   54 type  2   force =    -0.00000183   -0.00000259    0.00000000
     atom   55 type  2   force =     0.00001329   -0.00000789    0.00000000
     atom   56 type  2   force =     0.00001800   -0.00000996    0.00000000
     atom   57 type  2   force =     0.00001228   -0.00001080    0.00000000
     atom   58 type  2   force =     0.00000416   -0.00000857    0.00000000
     atom   59 type  2   force =     0.00000112    0.00000288    0.00000000
     atom   60 type  2   force =     0.00000501   -0.00000245    0.00000000
     atom   61 type  2   force =    -0.00000254   -0.00000236    0.00000000
     atom   62 type  2   force =    -0.00000210    0.00000077    0.00000000
     atom   63 type  2   force =     0.00001316   -0.00000732    0.00000000
     atom   64 type  2   force =     0.00000728   -0.00000323    0.00000000
     atom   65 type  2   force =     0.00000441    0.00000072    0.00000000
     atom   66 type  2   force =     0.00000153    0.00000059    0.00000000
     atom   67 type  3   force =    -0.00001909   -0.00000949    0.00000000
     atom   68 type  2   force =    -0.00000686   -0.00000022    0.00000000
     atom   69 type  2   force =    -0.00000151    0.00000303    0.00000000
     atom   70 type  2   force =     0.00000075    0.00000338    0.00000000
     atom   71 type  2   force =    -0.00000046    0.00000766    0.00000000
     atom   72 type  2   force =    -0.00000144    0.00001780    0.00000000
     atom   73 type  2   force =    -0.00000233    0.00001029    0.00000000
     atom   74 type  2   force =    -0.00000386   -0.00000253    0.00000000
     atom   75 type  5   force =    -0.00000679    0.00000477    0.00000000
     atom   76 type  2   force =     0.00000142   -0.00000129    0.00000000
     atom   77 type  2   force =     0.00000294   -0.00000095    0.00000000
     atom   78 type  2   force =    -0.00000435    0.00000343    0.00000000
     atom   79 type  2   force =    -0.00001135    0.00001322    0.00000000
     atom   80 type  2   force =    -0.00002082    0.00001189    0.00000000
     atom   81 type  2   force =    -0.00000867   -0.00000610    0.00000000
     atom   82 type  2   force =     0.00000257   -0.00000546    0.00000000
     atom   83 type  2   force =    -0.00000082    0.00000110    0.00000000
     atom   84 type  2   force =    -0.00000131   -0.00000685    0.00000000
     atom   85 type  2   force =    -0.00000506    0.00000267    0.00000000
     atom   86 type  2   force =    -0.00000812    0.00000516    0.00000000
     atom   87 type  2   force =    -0.00001668    0.00000328    0.00000000
     atom   88 type  2   force =    -0.00001538   -0.00000833    0.00000000
     atom   89 type  2   force =     0.00000311   -0.00000478    0.00000000
     atom   90 type  2   force =     0.00001199    0.00000207    0.00000000
     atom   91 type  2   force =     0.00000093    0.00000302    0.00000000
     atom   92 type  2   force =    -0.00000581    0.00000427    0.00000000
     atom   93 type  2   force =    -0.00000393    0.00000412    0.00000000
     atom   94 type  2   force =    -0.00000406    0.00000224    0.00000000
     atom   95 type  2   force =    -0.00000624   -0.00000378    0.00000000
     atom   96 type  2   force =     0.00000717   -0.00000483    0.00000000
     atom   97 type  2   force =     0.00001683   -0.00000511    0.00000000
     atom   98 type  2   force =     0.00000980   -0.00000087    0.00000000

     Total force =     0.000105     Total SCF correction =     0.000001


     Computing stress (Cartesian axis) and pressure


     negative rho (up, down):  4.844E-01 4.021E-03
          total   stress  (Ry/bohr**3)                   (kbar)     P=   -0.17
   0.00000001  -0.00000000   0.00000000          0.00     -0.00      0.00
  -0.00000000   0.00000001   0.00000000         -0.00      0.00      0.00
   0.00000000   0.00000000  -0.00000339          0.00      0.00     -0.50


     BFGS Geometry Optimization

     number of scf cycles    =   1
     number of bfgs steps    =   0

     enthalpy new            =   -1940.3941054937 Ry

     new trust radius        =       0.0000239739 bohr
     new conv_thr            =            1.0E-12 Ry

     new unit-cell volume =  36191.46640 a.u.^3 (  5363.02194 Ang^3 )
     density =      0.36350 g/cm^3

CELL_PARAMETERS (alat= 33.23461096)
   1.000288606   0.000428876   0.000000000
  -0.499772885   0.866489776   0.000000000
   0.000000000   0.000000000   1.137203616

ATOMIC_POSITIONS (crystal)
B        0.047298924   0.094773768   0.500000000
B        0.047405408   0.237897137   0.500000000
B        0.047369455   0.380880575   0.500000000
B        0.047274806   0.523669000   0.500000000
B        0.047751222   0.666560225   0.500000000
B        0.047968670   0.809578656   0.500000000
B        0.047705108   0.952294863   0.500000000
B        0.189896852   0.094334905   0.500000000
B        0.189418609   0.236824656   0.500000000
B        0.190389099   0.380961170   0.500000000
B        0.189770602   0.523393433   0.500000000
B        0.189908375   0.666644124   0.500000000
B        0.190480171   0.809519829   0.500000000
B        0.190421327   0.952031304   0.500000000
B        0.333140541   0.094239029   0.500000000
B        0.332437331   0.235901334   0.500000000
B        0.332212348   0.378163046   0.500000000
B        0.333067012   0.524645742   0.500000000
B        0.332235554   0.667764492   0.500000000
B        0.333355898   0.810091618   0.500000000
B        0.333439775   0.952248769   0.500000000
B        0.476253654   0.095183492   0.500000000
B        0.475901132   0.237863317   0.500000000
B        0.473936744   0.379411312   0.500000000
C2       0.476630012   0.523370558   0.500000000
B        0.475354389   0.666933033   0.500000000
B        0.476606608   0.810229382   0.500000000
B        0.476331009   0.952725180   0.500000000
B        0.618962587   0.095339131   0.500000000
B        0.618872390   0.238177395   0.500000000
B        0.618740998   0.381259047   0.500000000
B        0.620588732   0.526063373   0.500000000
B        0.621836948   0.667787653   0.500000000
B        0.619038825   0.809610862   0.500000000
B        0.619119440   0.952630525   0.500000000
B        0.761807992   0.095348411   0.500000000
B        0.761748812   0.238251180   0.500000000
B        0.761822603   0.381127619   0.500000000
B        0.762136668   0.524098880   0.500000000
B        0.764098633   0.667562669   0.500000000
B        0.763175292   0.810581352   0.500000000
B        0.762102832   0.952594559   0.500000000
B        0.904785589   0.095214386   0.500000000
B        0.904651575   0.238192001   0.500000000
B        0.904660861   0.381037418   0.500000000
B        0.904816497   0.523746348   0.500000000
B        0.905760954   0.666859456   0.500000000
B        0.905665042   0.810103118   0.500000000
B        0.905226199   0.952701048   0.500000000
N        0.094974438   0.047191555   0.500000000
N        0.094517234   0.189694524   0.500000000
N        0.094896603   0.333133138   0.500000000
N        0.094617161   0.476018059   0.500000000
N        0.094913217   0.618872193   0.500000000
N        0.095362832   0.761797359   0.500000000
N        0.095346812   0.904653193   0.500000000
N        0.237967498   0.047065353   0.500000000
N        0.237324213   0.189227286   0.500000000
N        0.236862275   0.331688168   0.500000000
N        0.237094163   0.476073356   0.500000000
N        0.237272429   0.619132776   0.500000000
N        0.238037297   0.761962689   0.500000000
N        0.238202633   0.904637169   0.500000000
N        0.381098660   0.047308898   0.500000000
N        0.380840032   0.189358580   0.500000000
N        0.380001646   0.330385265   0.500000000
C1       0.383094803   0.475998695   0.500000000
N        0.379681030   0.620318857   0.500000000
N        0.380867186   0.762727572   0.500000000
N        0.381127801   0.905086794   0.500000000
N        0.523895815   0.047857874   0.500000000
N        0.523760999   0.190608271   0.500000000
N        0.523330745   0.333799723   0.500000000
N        0.522386483   0.477613376   0.500000000
C3       0.524001051   0.616904874   0.500000000
N        0.523926615   0.762905883   0.500000000
N        0.523981929   0.905382862   0.500000000
N        0.666661660   0.047900600   0.500000000
N        0.666507229   0.190707078   0.500000000
N        0.666279916   0.333720078   0.500000000
N        0.666200269   0.476669195   0.500000000
N        0.669614736   0.619998279   0.500000000
N        0.668311887   0.763137799   0.500000000
N        0.666866886   0.905103455   0.500000000
N        0.809555988   0.047800991   0.500000000
N        0.809368495   0.190631519   0.500000000
N        0.809292929   0.333492771   0.500000000
N        0.809391733   0.476238987   0.500000000
N        0.810641437   0.619159953   0.500000000
N        0.810772766   0.762675812   0.500000000
N        0.810305514   0.905482803   0.500000000
N        0.952390018   0.047610005   0.500000000
N        0.952199035   0.190444033   0.500000000
N        0.952099423   0.333338346   0.500000000
N        0.952142134   0.476104178   0.500000000
N        0.952691111   0.618901334   0.500000000
N        0.952934664   0.762032498   0.500000000
N        0.952808467   0.905025580   0.500000000



     Writing output data file C2Cn.save/
     NEW-OLD atomic charge density approx. for the potential
     NEW k-points:
   0.0000000   0.0000000   0.0000000   1.0000000
   0.0000000   0.0000000   0.0000000   1.0000000

     Check: negative core charge=   -0.000006

     negative rho (up, down):  4.844E-01 1.996E-03
     extrapolated charge  391.00017, renormalised to  391.00000

     total cpu time spent up to now is      809.1 secs

     Self-consistent Calculation

     iteration #  1     ecut=    40.00 Ry     beta= 0.70
     CG style diagonalization
     ethr =  1.00E-06,  avg # of iterations =  2.0

     Threshold (ethr) on eigenvalues was too large:
     Diagonalizing with lowered threshold

     CG style diagonalization
     ethr =  4.22E-13,  avg # of iterations = 16.1

     negative rho (up, down):  4.844E-01 3.795E-03

     total cpu time spent up to now is      999.9 secs

     total energy              =   -1940.39410560 Ry
     Harris-Foulkes estimate   =   -1940.38971988 Ry
     estimated scf accuracy    <          4.3E-09 Ry

     total magnetization       =     1.00 Bohr mag/cell
     absolute magnetization    =     1.17 Bohr mag/cell

     iteration #  2     ecut=    40.00 Ry     beta= 0.70
     CG style diagonalization
     ethr =  1.09E-12,  avg # of iterations =  4.0

     negative rho (up, down):  4.844E-01 3.865E-03

     total cpu time spent up to now is     1035.8 secs

     total energy              =   -1940.39410558 Ry
     Harris-Foulkes estimate   =   -1940.39410561 Ry
     estimated scf accuracy    <          4.3E-09 Ry

     total magnetization       =     1.00 Bohr mag/cell
     absolute magnetization    =     1.17 Bohr mag/cell

     iteration #  3     ecut=    40.00 Ry     beta= 0.70
     CG style diagonalization
     ethr =  1.09E-12,  avg # of iterations =  3.4

     negative rho (up, down):  4.844E-01 3.929E-03

     total cpu time spent up to now is     1064.8 secs

     total energy              =   -1940.39410554 Ry
     Harris-Foulkes estimate   =   -1940.39410558 Ry
     estimated scf accuracy    <          3.3E-10 Ry

     total magnetization       =     1.00 Bohr mag/cell
     absolute magnetization    =     1.17 Bohr mag/cell

     iteration #  4     ecut=    40.00 Ry     beta= 0.70
     CG style diagonalization
     ethr =  1.00E-13,  avg # of iterations =  3.8

     negative rho (up, down):  4.844E-01 4.004E-03

     total cpu time spent up to now is     1098.5 secs

     total energy              =   -1940.39410551 Ry
     Harris-Foulkes estimate   =   -1940.39410554 Ry
     estimated scf accuracy    <          2.2E-10 Ry

     total magnetization       =     1.00 Bohr mag/cell
     absolute magnetization    =     1.17 Bohr mag/cell

     iteration #  5     ecut=    40.00 Ry     beta= 0.70
     CG style diagonalization
     ethr =  1.00E-13,  avg # of iterations =  3.2

     negative rho (up, down):  4.844E-01 4.014E-03

     total cpu time spent up to now is     1124.9 secs

     total energy              =   -1940.39410551 Ry
     Harris-Foulkes estimate   =   -1940.39410551 Ry
     estimated scf accuracy    <          5.6E-11 Ry

     total magnetization       =     1.00 Bohr mag/cell
     absolute magnetization    =     1.17 Bohr mag/cell

     iteration #  6     ecut=    40.00 Ry     beta= 0.70
     CG style diagonalization
     ethr =  1.00E-13,  avg # of iterations =  3.0

     negative rho (up, down):  4.844E-01 4.024E-03

     total cpu time spent up to now is     1149.4 secs

     total energy              =   -1940.39410550 Ry
     Harris-Foulkes estimate   =   -1940.39410551 Ry
     estimated scf accuracy    <          7.2E-12 Ry

     total magnetization       =     1.00 Bohr mag/cell
     absolute magnetization    =     1.17 Bohr mag/cell

     iteration #  7     ecut=    40.00 Ry     beta= 0.70
     CG style diagonalization
     ethr =  1.00E-13,  avg # of iterations =  3.0

     negative rho (up, down):  4.844E-01 4.029E-03

     total cpu time spent up to now is     1174.0 secs

     total energy              =   -1940.39410550 Ry
     Harris-Foulkes estimate   =   -1940.39410550 Ry
     estimated scf accuracy    <          2.2E-12 Ry

     total magnetization       =     1.00 Bohr mag/cell
     absolute magnetization    =     1.17 Bohr mag/cell

     iteration #  8     ecut=    40.00 Ry     beta= 0.70
     CG style diagonalization
     ethr =  1.00E-13,  avg # of iterations =  3.0

     negative rho (up, down):  4.844E-01 4.028E-03
 
     Magnetic moment per site:
     atom:    1    charge:    0.8514    magn:   -0.0000    constr:    0.0000
     atom:    2    charge:    0.8469    magn:    0.0003    constr:    0.0000
     atom:    3    charge:    0.8484    magn:   -0.0004    constr:    0.0000
     atom:    4    charge:    0.8498    magn:    0.0002    constr:    0.0000
     atom:    5    charge:    0.8523    magn:    0.0000    constr:    0.0000
     atom:    6    charge:    0.8510    magn:    0.0000    constr:    0.0000
     atom:    7    charge:    0.8519    magn:    0.0003    constr:    0.0000
     atom:    8    charge:    0.8509    magn:   -0.0000    constr:    0.0000
     atom:    9    charge:    0.8517    magn:   -0.0000    constr:    0.0000
     atom:   10    charge:    0.8449    magn:   -0.0009    constr:    0.0000
     atom:   11    charge:    0.8493    magn:   -0.0004    constr:    0.0000
     atom:   12    charge:    0.8516    magn:   -0.0004    constr:    0.0000
     atom:   13    charge:    0.8519    magn:    0.0002    constr:    0.0000
     atom:   14    charge:    0.8510    magn:    0.0000    constr:    0.0000
     atom:   15    charge:    0.8509    magn:    0.0003    constr:    0.0000
     atom:   16    charge:    0.8560    magn:   -0.0003    constr:    0.0000
     atom:   17    charge:    0.8626    magn:   -0.0018    constr:    0.0000
     atom:   18    charge:    0.8538    magn:   -0.0053    constr:    0.0000
     atom:   19    charge:    0.8550    magn:   -0.0018    constr:    0.0000
     atom:   20    charge:    0.8516    magn:   -0.0004    constr:    0.0000
     atom:   21    charge:    0.8523    magn:    0.0000    constr:    0.0000
     atom:   22    charge:    0.8475    magn:    0.0001    constr:    0.0000
     atom:   23    charge:    0.8443    magn:   -0.0004    constr:    0.0000
     atom:   24    charge:    0.8413    magn:    0.0009    constr:    0.0000
     atom:   25    charge:    1.5794    magn:    0.0322    constr:    0.0000
     atom:   26    charge:    0.8538    magn:   -0.0053    constr:    0.0000
     atom:   27    charge:    0.8493    magn:   -0.0004    constr:    0.0000
     atom:   28    charge:    0.8498    magn:    0.0002    constr:    0.0000
     atom:   29    charge:    0.8477    magn:    0.0000    constr:    0.0000
     atom:   30    charge:    0.8477    magn:    0.0005    constr:    0.0000
     atom:   31    charge:    0.8464    magn:    0.0018    constr:    0.0000
     atom:   32    charge:    0.8413    magn:    0.0009    constr:    0.0000
     atom:   33    charge:    0.8626    magn:   -0.0018    constr:    0.0000
     atom:   34    charge:    0.8449    magn:   -0.0009    constr:    0.0000
     atom:   35    charge:    0.8484    magn:   -0.0004    constr:    0.0000
     atom:   36    charge:    0.8473    magn:    0.0000    constr:    0.0000
     atom:   37    charge:    0.8465    magn:    0.0003    constr:    0.0000
     atom:   38    charge:    0.8477    magn:    0.0005    constr:    0.0000
     atom:   39    charge:    0.8443    magn:   -0.0004    constr:    0.0000
     atom:   40    charge:    0.8560    magn:   -0.0003    constr:    0.0000
     atom:   41    charge:    0.8517    magn:   -0.0000    constr:    0.0000
     atom:   42    charge:    0.8469    magn:    0.0003    constr:    0.0000
     atom:   43    charge:    0.8467    magn:    0.0002    constr:    0.0000
     atom:   44    charge:    0.8473    magn:    0.0000    constr:    0.0000
     atom:   45    charge:    0.8477    magn:    0.0000    constr:    0.0000
     atom:   46    charge:    0.8475    magn:    0.0001    constr:    0.0000
     atom:   47    charge:    0.8509    magn:    0.0003    constr:    0.0000
     atom:   48    charge:    0.8509    magn:   -0.0000    constr:    0.0000
     atom:   49    charge:    0.8514    magn:   -0.0000    constr:    0.0000
     atom:   50    charge:    2.6730    magn:    0.0004    constr:    0.0000
     atom:   51    charge:    2.6715    magn:    0.0003    constr:    0.0000
     atom:   52    charge:    2.6614    magn:    0.0047    constr:    0.0000
     atom:   53    charge:    2.6708    magn:    0.0034    constr:    0.0000
     atom:   54    charge:    2.6727    magn:    0.0001    constr:    0.0000
     atom:   55    charge:    2.6641    magn:    0.0002    constr:    0.0000
     atom:   56    charge:    2.6668    magn:   -0.0000    constr:    0.0000
     atom:   57    charge:    2.6688    magn:   -0.0001    constr:    0.0000
     atom:   58    charge:    2.6706    magn:    0.0034    constr:    0.0000
     atom:   59    charge:    2.6587    magn:    0.0241    constr:    0.0000
     atom:   60    charge:    2.6639    magn:    0.0002    constr:    0.0000
     atom:   61    charge:    2.6688    magn:    0.0106    constr:    0.0000
     atom:   62    charge:    2.6651    magn:    0.0053    constr:    0.0000
     atom:   63    charge:    2.6641    magn:    0.0002    constr:    0.0000
     atom:   64    charge:    2.6723    magn:    0.0003    constr:    0.0000
     atom:   65    charge:    2.6724    magn:    0.0041    constr:    0.0000
     atom:   66    charge:    2.6760    magn:    0.0004    constr:    0.0000
     atom:   67    charge:    1.7250    magn:    0.0431    constr:    0.0000
     atom:   68    charge:    2.6548    magn:    0.0749    constr:    0.0000
     atom:   69    charge:    2.6688    magn:    0.0106    constr:    0.0000
     atom:   70    charge:    2.6727    magn:    0.0001    constr:    0.0000
     atom:   71    charge:    2.6719    magn:    0.0003    constr:    0.0000
     atom:   72    charge:    2.6669    magn:   -0.0001    constr:    0.0000
     atom:   73    charge:    2.6627    magn:    0.0101    constr:    0.0000
     atom:   74    charge:    2.6271    magn:    0.1094    constr:    0.0000
     atom:   75    charge:    1.7250    magn:    0.0431    constr:    0.0000
     atom:   76    charge:    2.6639    magn:    0.0002    constr:    0.0000
     atom:   77    charge:    2.6708    magn:    0.0034    constr:    0.0000
     atom:   78    charge:    2.6697    magn:    0.0002    constr:    0.0000
     atom:   79    charge:    2.6653    magn:    0.0001    constr:    0.0000
     atom:   80    charge:    2.6591    magn:    0.0049    constr:    0.0000
     atom:   81    charge:    2.6627    magn:    0.0101    constr:    0.0000
     atom:   82    charge:    2.6760    magn:    0.0004    constr:    0.0000
     atom:   83    charge:    2.6587    magn:    0.0241    constr:    0.0000
     atom:   84    charge:    2.6614    magn:    0.0047    constr:    0.0000
     atom:   85    charge:    2.6684    magn:    0.0005    constr:    0.0000
     atom:   86    charge:    2.6678    magn:    0.0001    constr:    0.0000
     atom:   87    charge:    2.6653    magn:    0.0001    constr:    0.0000
     atom:   88    charge:    2.6669    magn:   -0.0001    constr:    0.0000
     atom:   89    charge:    2.6724    magn:    0.0041    constr:    0.0000
     atom:   90    charge:    2.6706    magn:    0.0034    constr:    0.0000
     atom:   91    charge:    2.6715    magn:    0.0003    constr:    0.0000
     atom:   92    charge:    2.6733    magn:    0.0001    constr:    0.0000
     atom:   93    charge:    2.6684    magn:    0.0005    constr:    0.0000
     atom:   94    charge:    2.6697    magn:    0.0002    constr:    0.0000
     atom:   95    charge:    2.6719    magn:    0.0003    constr:    0.0000
     atom:   96    charge:    2.6723    magn:    0.0003    constr:    0.0000
     atom:   97    charge:    2.6688    magn:   -0.0001    constr:    0.0000
     atom:   98    charge:    2.6730    magn:    0.0004    constr:    0.0000

     total cpu time spent up to now is     1198.9 secs

     End of self-consistent calculation

 ------ SPIN UP ------------


          k = 0.0000 0.0000 0.0000 ( 77359 PWs)   bands (ev):

   -22.0130 -21.6836 -21.4209 -21.4022 -21.3636 -21.2989 -21.2744 -20.9088
   -20.6728 -20.6600 -20.6136 -20.5489 -20.5473 -20.4342 -20.2992 -20.2874
   -20.2611 -20.1354 -20.0802 -19.6158 -19.4541 -19.4316 -19.3932 -19.3895
   -19.3749 -19.3658 -19.3534 -19.3113 -19.2867 -19.1778 -19.1546 -19.0338
   -18.9709 -18.9630 -18.9310 -18.7673 -18.7664 -18.5640 -18.5437 -18.5392
   -18.5065 -18.4611 -18.4058 -18.3748 -18.3622 -18.3133 -18.2999 -16.8130
   -14.7623 -13.1921 -12.7938 -12.7879 -12.7431 -12.7189 -12.7151 -12.6339
   -12.5839 -12.5267 -12.5209 -12.4562 -12.3942 -12.1670 -12.0610 -12.0560
   -12.0157 -11.9819 -11.9326 -11.5824 -11.4227 -11.4211 -11.4072 -11.3946
[...]
     atom:   55    charge:    2.6641    magn:    0.0002    constr:    0.0000
     atom:   56    charge:    2.6668    magn:   -0.0000    constr:    0.0000
     atom:   57    charge:    2.6688    magn:   -0.0001    constr:    0.0000
     atom:   58    charge:    2.6706    magn:    0.0034    constr:    0.0000
     atom:   59    charge:    2.6587    magn:    0.0241    constr:    0.0000
     atom:   60    charge:    2.6639    magn:    0.0002    constr:    0.0000
     atom:   61    charge:    2.6688    magn:    0.0106    constr:    0.0000
     atom:   62    charge:    2.6651    magn:    0.0053    constr:    0.0000
     atom:   63    charge:    2.6641    magn:    0.0002    constr:    0.0000
     atom:   64    charge:    2.6723    magn:    0.0003    constr:    0.0000
     atom:   65    charge:    2.6724    magn:    0.0041    constr:    0.0000
     atom:   66    charge:    2.6760    magn:    0.0004    constr:    0.0000
     atom:   67    charge:    1.7250    magn:    0.0431    constr:    0.0000
     atom:   68    charge:    2.6548    magn:    0.0749    constr:    0.0000
     atom:   69    charge:    2.6688    magn:    0.0106    constr:    0.0000
     atom:   70    charge:    2.6727    magn:    0.0001    constr:    0.0000
     atom:   71    charge:    2.6719    magn:    0.0003    constr:    0.0000
     atom:   72    charge:    2.6669    magn:   -0.0001    constr:    0.0000
     atom:   73    charge:    2.6627    magn:    0.0101    constr:    0.0000
     atom:   74    charge:    2.6271    magn:    0.1094    constr:    0.0000
     atom:   75    charge:    1.7250    magn:    0.0431    constr:    0.0000
     atom:   76    charge:    2.6639    magn:    0.0002    constr:    0.0000
     atom:   77    charge:    2.6708    magn:    0.0034    constr:    0.0000
     atom:   78    charge:    2.6697    magn:    0.0002    constr:    0.0000
     atom:   79    charge:    2.6653    magn:    0.0001    constr:    0.0000
     atom:   80    charge:    2.6591    magn:    0.0049    constr:    0.0000
     atom:   81    charge:    2.6627    magn:    0.0101    constr:    0.0000
     atom:   82    charge:    2.6760    magn:    0.0004    constr:    0.0000
     atom:   83    charge:    2.6587    magn:    0.0241    constr:    0.0000
     atom:   84    charge:    2.6614    magn:    0.0047    constr:    0.0000
     atom:   85    charge:    2.6684    magn:    0.0005    constr:    0.0000
     atom:   86    charge:    2.6678    magn:    0.0001    constr:    0.0000
     atom:   87    charge:    2.6653    magn:    0.0001    constr:    0.0000
     atom:   88    charge:    2.6669    magn:   -0.0001    constr:    0.0000
     atom:   89    charge:    2.6724    magn:    0.0041    constr:    0.0000
     atom:   90    charge:    2.6706    magn:    0.0034    constr:    0.0000
     atom:   91    charge:    2.6715    magn:    0.0003    constr:    0.0000
     atom:   92    charge:    2.6733    magn:    0.0001    constr:    0.0000
     atom:   93    charge:    2.6684    magn:    0.0005    constr:    0.0000
     atom:   94    charge:    2.6697    magn:    0.0002    constr:    0.0000
     atom:   95    charge:    2.6719    magn:    0.0003    constr:    0.0000
     atom:   96    charge:    2.6723    magn:    0.0003    constr:    0.0000
     atom:   97    charge:    2.6688    magn:   -0.0001    constr:    0.0000
     atom:   98    charge:    2.6730    magn:    0.0004    constr:    0.0000

     total cpu time spent up to now is     3482.4 secs

     End of self-consistent calculation

 ------ SPIN UP ------------


          k = 0.0000 0.0000 0.0000 ( 77359 PWs)   bands (ev):

   -22.0130 -21.6836 -21.4209 -21.4022 -21.3636 -21.2989 -21.2744 -20.9088
   -20.6729 -20.6600 -20.6136 -20.5489 -20.5473 -20.4342 -20.2992 -20.2874
   -20.2611 -20.1354 -20.0802 -19.6158 -19.4541 -19.4316 -19.3932 -19.3895
   -19.3749 -19.3658 -19.3534 -19.3113 -19.2867 -19.1778 -19.1546 -19.0338
   -18.9709 -18.9630 -18.9310 -18.7673 -18.7664 -18.5640 -18.5437 -18.5392
   -18.5065 -18.4611 -18.4057 -18.3748 -18.3622 -18.3133 -18.2999 -16.8130
   -14.7623 -13.1921 -12.7938 -12.7879 -12.7431 -12.7189 -12.7151 -12.6339
   -12.5839 -12.5267 -12.5208 -12.4562 -12.3942 -12.1670 -12.0610 -12.0560
   -12.0157 -11.9819 -11.9326 -11.5824 -11.4227 -11.4211 -11.4072 -11.3946
   -11.3603 -11.3494 -11.3342 -11.3005 -11.2941 -11.0834 -11.0013 -10.8860
   -10.7238 -10.7079 -10.6639 -10.6282 -10.4705 -10.0769 -10.0195 -10.0043
    -9.9338  -9.8787  -9.7919  -9.4216  -9.3721  -9.3459  -9.3017  -9.2893
    -9.2790  -9.2048  -9.0785  -9.0304  -8.9621  -8.9086  -8.9064  -8.8977
    -8.8975  -8.8879  -8.8714  -8.8569  -8.8543  -8.8321  -8.8212  -8.8111
    -8.8012  -8.7713  -8.7587  -8.7252  -8.7137  -8.7033  -8.6434  -8.6204
    -8.4623  -8.4342  -8.2414  -8.1738  -8.1717  -8.0740  -8.0677  -8.0363
    -7.8430  -7.8351  -7.8068  -7.7847  -7.7253  -7.7135  -7.5834  -7.5133
    -7.4990  -7.4859  -7.4857  -7.4565  -7.4303  -7.3924  -7.3776  -7.3443
    -7.3381  -7.3155  -7.3150  -7.2250  -7.2227  -7.2223  -7.1508  -7.0368
    -7.0098  -6.9704  -6.8752  -6.7938  -6.6166  -6.4796  -6.3369  -6.1887
    -6.1778  -6.1539  -6.1272  -6.1018  -6.0627  -6.0568  -6.0508  -6.0295
    -6.0284  -6.0235  -6.0015  -5.9473  -5.8781  -5.7844  -5.7721  -5.6391
    -5.5387  -5.4473  -5.4451  -5.4382  -5.3055  -5.2237  -4.9632  -4.9551
    -4.8167  -4.8042  -4.7719  -4.7405  -4.6724  -4.6535  -4.5591  -4.5173
    -4.5012  -4.4730  -4.3886  -3.0799   0.0518   0.1783   0.6496   0.6630
     0.7079   0.7216   0.7271   0.7408   0.7735   0.7966   0.7980   0.7988
     0.8172   0.8332   0.8548   0.8694   0.8761   0.9136   0.9441   0.9449
     1.0288   1.1409   1.2061   1.2428   1.2767   1.3063   1.3139   1.3242
     1.3290   1.3422   1.3507   1.3750   1.4140   1.4282   1.4330   1.4409
     1.4495   1.4653   1.4901   1.8838   2.0616   2.0907   2.0937   2.2546
     2.3093   2.3316   2.3459   2.3506   2.4433

 ------ SPIN DOWN ----------


          k = 0.0000 0.0000 0.0000 ( 77359 PWs)   bands (ev):

   -21.8910 -21.6512 -21.4178 -21.3976 -21.3591 -21.2721 -21.2667 -20.8759
   -20.6664 -20.6481 -20.6100 -20.5415 -20.5367 -20.4257 -20.2939 -20.2795
   -20.2380 -20.1083 -20.0735 -19.5840 -19.4455 -19.4244 -19.3888 -19.3831
   -19.3706 -19.3622 -19.3403 -19.2905 -19.2827 -19.1608 -19.1437 -19.0259
   -18.9626 -18.9576 -18.9057 -18.7609 -18.7513 -18.5566 -18.5363 -18.5247
   -18.4964 -18.4547 -18.3986 -18.3645 -18.3566 -18.3021 -18.2717 -16.6221
   -14.6564 -13.1518 -12.7903 -12.7814 -12.7407 -12.7170 -12.7135 -12.6298
   -12.5792 -12.5226 -12.5171 -12.4444 -12.3883 -12.1597 -12.0560 -12.0516
   -12.0125 -11.9736 -11.9235 -11.5691 -11.4143 -11.4106 -11.4046 -11.3868
   -11.3585 -11.3406 -11.3292 -11.2905 -11.2859 -11.0632 -10.9888 -10.8785
   -10.7205 -10.7067 -10.6580 -10.6204 -10.4651 -10.0648 -10.0122  -9.9949
    -9.9229  -9.8648  -9.7817  -9.4129  -9.3366  -9.3255  -9.2938  -9.2844
    -9.2754  -9.2025  -9.0675  -8.9487  -8.9192  -8.9048  -8.9019  -8.8948
    -8.8919  -8.8818  -8.8613  -8.8534  -8.8481  -8.8203  -8.8181  -8.8051
    -8.7919  -8.7657  -8.7561  -8.7126  -8.6980  -8.6334  -8.6158  -8.6121
    -8.4578  -8.4165  -8.2388  -8.1713  -8.1698  -8.0642  -8.0512  -7.9184
    -7.8303  -7.8092  -7.7986  -7.7778  -7.7003  -7.6883  -7.5751  -7.5058
    -7.4927  -7.4819  -7.4552  -7.4368  -7.4293  -7.3890  -7.3723  -7.3337
    -7.3178  -7.3100  -7.2766  -7.2142  -7.2107  -7.1622  -7.1357  -7.0343
    -6.9962  -6.9673  -6.8567  -6.7771  -6.6063  -6.4716  -6.2344  -6.1827
    -6.1721  -6.1473  -6.1091  -6.0873  -6.0508  -6.0429  -6.0387  -6.0217
    -6.0149  -6.0028  -5.9444  -5.9378  -5.8176  -5.7646  -5.7626  -5.6311
    -5.5101  -5.4371  -5.4312  -5.3917  -5.2474  -5.1985  -4.9262  -4.9191
    -4.7830  -4.7791  -4.7533  -4.7193  -4.6566  -4.6060  -4.5415  -4.5070
    -4.4743  -4.4524  -4.0635  -2.8684   0.1799   0.2023   0.6696   0.6829
     0.7089   0.7273   0.7418   0.7442   0.7754   0.7968   0.7989   0.8036
     0.8181   0.8345   0.8583   0.8769   0.8797   0.9240   0.9507   0.9520
     1.0342   1.1630   1.2184   1.2556   1.2778   1.3066   1.3140   1.3288
     1.3342   1.3431   1.3586   1.3820   1.4179   1.4284   1.4330   1.4410
     1.4500   1.4656   1.4932   1.8856   2.0929   2.0940   2.1183   2.1188
     2.1262   2.1478   2.1551   2.2125   2.2695

     highest occupied, lowest unoccupied level (ev):    -3.0799   -4.0635

!    total energy              =   -1940.39410551 Ry
     Harris-Foulkes estimate   =   -1940.39410551 Ry
     estimated scf accuracy    <          6.6E-15 Ry

     total all-electron energy =     -7770.218582 Ry

     The total energy is the sum of the following terms:

     one-electron contribution =  -10656.57770365 Ry
     hartree contribution      =    5413.96106661 Ry
     xc contribution           =    -430.78341993 Ry
     ewald contribution        =    4376.45915471 Ry
     DFT-D3 Dispersion         =      -0.27035049 Ry
     one-center paw contrib.   =    -643.18285278 Ry

     total magnetization       =     1.00 Bohr mag/cell
     absolute magnetization    =     1.17 Bohr mag/cell

     convergence has been achieved in  32 iterations

     negative rho (up, down):  4.844E-01 4.027E-03

     Forces acting on atoms (cartesian axes, Ry/au):

     atom    1 type  1   force =     0.00000194   -0.00000090    0.00000000
     atom    2 type  1   force =    -0.00000067    0.00000426    0.00000000
     atom    3 type  1   force =     0.00000286   -0.00000125    0.00000000
     atom    4 type  1   force =     0.00000042   -0.00000202    0.00000000
     atom    5 type  1   force =     0.00000669   -0.00000302    0.00000000
     atom    6 type  1   force =     0.00001838   -0.00000602    0.00000000
     atom    7 type  1   force =     0.00001533   -0.00000693    0.00000000
     atom    8 type  1   force =     0.00000873   -0.00000724    0.00000000
     atom    9 type  1   force =     0.00000063    0.00000309    0.00000000
     atom   10 type  1   force =     0.00000414    0.00000236    0.00000000
     atom   11 type  1   force =     0.00000377   -0.00000376    0.00000000
     atom   12 type  1   force =    -0.00000047   -0.00000113    0.00000000
     atom   13 type  1   force =     0.00000563   -0.00000314    0.00000000
     atom   14 type  1   force =     0.00001455   -0.00001083    0.00000000
     atom   15 type  1   force =     0.00000738   -0.00000277    0.00000000
     atom   16 type  1   force =     0.00000128    0.00000227    0.00000000
     atom   17 type  1   force =    -0.00000280    0.00000106    0.00000000
     atom   18 type  1   force =    -0.00000393   -0.00000556    0.00000000
     atom   19 type  1   force =    -0.00000510   -0.00000003    0.00000000
     atom   20 type  1   force =    -0.00000305    0.00000206    0.00000000
     atom   21 type  1   force =     0.00000463   -0.00000322    0.00000000
     atom   22 type  1   force =     0.00000115    0.00000950    0.00000000
     atom   23 type  1   force =     0.00000001    0.00001155    0.00000000
     atom   24 type  1   force =    -0.00000530    0.00000109    0.00000000
     atom   25 type  4   force =    -0.00002559   -0.00003155    0.00000000
     atom   26 type  1   force =    -0.00001163    0.00000162    0.00000000
     atom   27 type  1   force =    -0.00000166    0.00000133    0.00000000
     atom   28 type  1   force =    -0.00000006    0.00000225    0.00000000
     atom   29 type  1   force =    -0.00000288    0.00000981    0.00000000
     atom   30 type  1   force =    -0.00000631    0.00001377    0.00000000
     atom   31 type  1   force =    -0.00001025    0.00000223    0.00000000
     atom   32 type  1   force =    -0.00000144   -0.00001019    0.00000000
     atom   33 type  1   force =    -0.00000119    0.00000252    0.00000000
     atom   34 type  1   force =    -0.00000178    0.00000105    0.00000000
     atom   35 type  1   force =    -0.00000068    0.00000126    0.00000000
     atom   36 type  1   force =    -0.00000479    0.00000493    0.00000000
     atom   37 type  1   force =    -0.00000904    0.00000559    0.00000000
     atom   38 type  1   force =    -0.00001451   -0.00000262    0.00000000
     atom   39 type  1   force =    -0.00000748   -0.00000759    0.00000000
     atom   40 type  1   force =     0.00000377   -0.00000218    0.00000000
     atom   41 type  1   force =     0.00000233    0.00000274    0.00000000
     atom   42 type  1   force =    -0.00000199    0.00000244    0.00000000
     atom   43 type  1   force =    -0.00000407    0.00000411    0.00000000
     atom   44 type  1   force =    -0.00000509    0.00000301    0.00000000
     atom   45 type  1   force =    -0.00000832   -0.00000310    0.00000000
     atom   46 type  1   force =    -0.00000624   -0.00000630    0.00000000
     atom   47 type  1   force =     0.00000835   -0.00000526    0.00000000
     atom   48 type  1   force =     0.00001556   -0.00000095    0.00000000
     atom   49 type  1   force =     0.00000434    0.00000236    0.00000000
     atom   50 type  2   force =     0.00000293   -0.00000361    0.00000000
     atom   51 type  2   force =     0.00000382   -0.00000958    0.00000000
     atom   52 type  2   force =    -0.00000110   -0.00000749    0.00000000
     atom   53 type  2   force =    -0.00000462   -0.00000408    0.00000000
     atom   54 type  2   force =    -0.00000271   -0.00000982    0.00000000
     atom   55 type  2   force =    -0.00000014   -0.00000785    0.00000000
     atom   56 type  2   force =     0.00000168   -0.00000200    0.00000000
     atom   57 type  2   force =     0.00000432    0.00000280    0.00000000
     atom   58 type  2   force =     0.00000341   -0.00001018    0.00000000
     atom   59 type  2   force =     0.00000241   -0.00001489    0.00000000
     atom   60 type  2   force =    -0.00000233   -0.00000049    0.00000000
     atom   61 type  2   force =    -0.00000054    0.00000037    0.00000000
     atom   62 type  2   force =     0.00000741   -0.00000310    0.00000000
     atom   63 type  2   force =     0.00000744    0.00000348    0.00000000
     atom   64 type  2   force =     0.00000343    0.00000890    0.00000000
     atom   65 type  2   force =    -0.00000428   -0.00000212    0.00000000
     atom   66 type  2   force =    -0.00000184   -0.00000868    0.00000000
     atom   67 type  3   force =     0.00001657    0.00001396    0.00000000
     atom   68 type  2   force =     0.00000462    0.00000762    0.00000000
     atom   69 type  2   force =     0.00000502    0.00000125    0.00000000
     atom   70 type  2   force =     0.00000886    0.00000593    0.00000000
     atom   71 type  2   force =     0.00000129    0.00000656    0.00000000
     atom   72 type  2   force =    -0.00000846    0.00000318    0.00000000
     atom   73 type  2   force =    -0.00001336    0.00000364    0.00000000
     atom   74 type  2   force =    -0.00000288    0.00001323    0.00000000
     atom   75 type  5   force =     0.00000932    0.00001860    0.00000000
     atom   76 type  2   force =     0.00000658   -0.00000242    0.00000000
     atom   77 type  2   force =     0.00000452    0.00000366    0.00000000
     atom   78 type  2   force =    -0.00000024    0.00000126    0.00000000
     atom   79 type  2   force =    -0.00000519    0.00000266    0.00000000
     atom   80 type  2   force =    -0.00001151    0.00000699    0.00000000
     atom   81 type  2   force =    -0.00001346    0.00001695    0.00000000
     atom   82 type  2   force =     0.00000098    0.00001489    0.00000000
     atom   83 type  2   force =     0.00001138   -0.00000343    0.00000000
     atom   84 type  2   force =     0.00000646   -0.00000172    0.00000000
     atom   85 type  2   force =     0.00000050   -0.00000171    0.00000000
     atom   86 type  2   force =    -0.00000305    0.00000065    0.00000000
     atom   87 type  2   force =    -0.00000582    0.00000304    0.00000000
     atom   88 type  2   force =    -0.00000859    0.00000731    0.00000000
     atom   89 type  2   force =    -0.00000388    0.00000621    0.00000000
     atom   90 type  2   force =     0.00000480   -0.00000105    0.00000000
     atom   91 type  2   force =     0.00000750   -0.00000285    0.00000000
     atom   92 type  2   force =     0.00000260   -0.00000369    0.00000000
     atom   93 type  2   force =    -0.00000043   -0.00000215    0.00000000
     atom   94 type  2   force =    -0.00000374   -0.00000104    0.00000000
     atom   95 type  2   force =    -0.00000667   -0.00000367    0.00000000
     atom   96 type  2   force =    -0.00000761   -0.00000705    0.00000000
     atom   97 type  2   force =    -0.00000326   -0.00000547    0.00000000
     atom   98 type  2   force =     0.00000230   -0.00000372    0.00000000

     Total force =     0.000099     Total SCF correction =     0.000000


     Computing stress (Cartesian axis) and pressure


     negative rho (up, down):  4.844E-01 4.027E-03
          total   stress  (Ry/bohr**3)                   (kbar)     P=   -0.17
   0.00000000  -0.00000000   0.00000000          0.00     -0.00      0.00
  -0.00000000   0.00000000   0.00000000         -0.00      0.00      0.00
   0.00000000   0.00000000  -0.00000339          0.00      0.00     -0.50


     Writing output data file C2Cn.save/
 
     init_run     :      9.56s CPU     10.04s WALL (       2 calls)
     electrons    :   3348.72s CPU   3385.47s WALL (       5 calls)
     update_pot   :     10.31s CPU     10.39s WALL (       3 calls)
     forces       :     18.93s CPU     19.60s WALL (       5 calls)
     stress       :     59.58s CPU     60.02s WALL (       5 calls)

     Called by init_run:
     wfcinit      :      3.75s CPU      3.98s WALL (       2 calls)
     potinit      :      2.07s CPU      2.12s WALL (       2 calls)
     hinit0       :      2.81s CPU      2.87s WALL (       2 calls)

     Called by electrons:
     c_bands      :   3242.60s CPU   3273.35s WALL (      92 calls)
     sum_band     :     56.07s CPU     58.43s WALL (      92 calls)
     v_of_rho     :     17.72s CPU     18.37s WALL (      94 calls)
     newd         :      6.74s CPU      7.93s WALL (      94 calls)
     PAW_pot      :     19.54s CPU     19.79s WALL (      97 calls)
     mix_rho      :      1.71s CPU      1.99s WALL (      92 calls)

     Called by c_bands:
     init_us_2    :      3.37s CPU      3.48s WALL (     398 calls)
     rcgdiagg     :   3137.73s CPU   3165.10s WALL (     198 calls)
     wfcrot       :    105.42s CPU    107.84s WALL (     186 calls)

     Called by sum_band:
     sum_band:bec :      0.15s CPU      0.15s WALL (     190 calls)
     addusdens    :      6.35s CPU      7.94s WALL (      92 calls)

     Called by *cgdiagg:
     h_psi        :   1626.61s CPU   1641.67s WALL (  139452 calls)
     s_psi        :    924.86s CPU    932.98s WALL (  278718 calls)
     rdiaghg      :      3.43s CPU      3.56s WALL (     186 calls)

     Called by h_psi:
     h_psi:pot    :   1624.79s CPU   1639.82s WALL (  139452 calls)
     h_psi:calbec :    572.36s CPU    577.45s WALL (  139452 calls)
     vloc_psi     :    563.62s CPU    570.57s WALL (  139452 calls)
     add_vuspsi   :    486.99s CPU    490.38s WALL (  139452 calls)
     hs_1psi      :   2004.14s CPU   2021.66s WALL (  139266 calls)
     s_1psi       :    946.17s CPU    953.85s WALL (  139266 calls)

     General routines
     calbec       :   1065.72s CPU   1075.89s WALL (  278958 calls)
     fft          :     14.23s CPU     14.50s WALL (    1762 calls)
     ffts         :      0.72s CPU      0.74s WALL (     184 calls)
     fftw         :    536.30s CPU    542.84s WALL (  347504 calls)
 
     Parallel routines
     fft_scatt_xy :     50.22s CPU     50.78s WALL (  349450 calls)
     fft_scatt_yz :    154.94s CPU    157.33s WALL (  349450 calls)
 
     PWSCF        :  57m32.08s CPU  58m20.08s WALL

 
   This run was terminated on:  11:31: 5   2Jul2021            

=------------------------------------------------------------------------------=
   JOB DONE.
=------------------------------------------------------------------------------=
