
     Program PWSCF v.6.4.1 starts on  9Jun2021 at  9:54: 2 

     This program is part of the open-source Quantum ESPRESSO suite
     for quantum simulation of materials; please cite
         "P. Giannozzi et al., J. Phys.:Condens. Matter 21 395502 (2009);
         "P. Giannozzi et al., J. Phys.:Condens. Matter 29 465901 (2017);
          URL http://www.quantum-espresso.org", 
     in publications or presentations arising from this work. More details at
     http://www.quantum-espresso.org/quote

     Parallel version (MPI), running on    64 processors

     MPI processes distributed on     2 nodes
     R & G space division:  proc/nbgrp/npool/nimage =      64
     Waiting for input...
     Reading input from standard input

     Current dimensions of program PWSCF are:
     Max number of different atomic species (ntypx) = 10
     Max number of k-points (npk) =  40000
     Max angular momentum in pseudopotentials (lmaxx) =  3
               file N.pbe-n-kjpaw_psl.1.0.0.UPF: wavefunction(s)  2S renormalized
               file C.pbe-n-kjpaw_psl.1.0.0.UPF: wavefunction(s)  2S 2P renormalized
               file C.pbe-n-kjpaw_psl.1.0.0.UPF: wavefunction(s)  2S 2P renormalized
               file C.pbe-n-kjpaw_psl.1.0.0.UPF: wavefunction(s)  2S 2P renormalized

     --------------------------------------------
     Parameters for DFT-D3 Dispersion Correction:
     --------------------------------------------
       Reference C6 values for interpolation: 

         atom   Coordination number   C6
         B          0.000           214.36
         B          0.971           150.74
         B          1.944           106.23
         B          2.913            62.89
         B          4.586            56.06
         C1         0.000            98.23
         C1         0.987            86.49
         C1         1.998            58.72
         C1         2.999            51.56
         C1         3.984            36.41
         C2         0.000            98.23
         C2         0.987            86.49
         C2         1.998            58.72
         C2         2.999            51.56
         C2         3.984            36.41
         C3         0.000            98.23
         C3         0.987            86.49
         C3         1.998            58.72
         C3         2.999            51.56
         C3         3.984            36.41
         N          0.000            50.54
         N          0.994            44.25
         N          2.014            39.35
         N          2.990            31.16

       Values used:

         atom   Coordination number  R0_AB[au]  C6      C8
         B          3.325            3.039     62.90   2506.24
         B          3.317            3.039     62.90   2506.44
         B          3.317            3.039     62.90   2506.43
         B          3.325            3.039     62.90   2506.25
         B          3.327            3.039     62.90   2506.21
         B          3.324            3.039     62.90   2506.27
         B          3.326            3.039     62.90   2506.22
         B          3.325            3.039     62.90   2506.26
         B          3.323            3.039     62.90   2506.30
         B          3.303            3.039     62.91   2506.76
         B          3.322            3.039     62.90   2506.33
         B          3.329            3.039     62.90   2506.15
         B          3.325            3.039     62.90   2506.24
         B          3.324            3.039     62.90   2506.27
         B          3.325            3.039     62.90   2506.26
         B          3.327            3.039     62.90   2506.21
         B          3.297            3.039     62.91   2506.88
         B          3.297            3.039     62.91   2506.90
         B          3.336            3.039     62.89   2505.99
         B          3.329            3.039     62.90   2506.15
         B          3.327            3.039     62.90   2506.21
         B          3.323            3.039     62.90   2506.31
         B          3.319            3.039     62.90   2506.40
         B          3.314            3.039     62.90   2506.51
         C2         3.249            2.750     49.43   1429.56
         B          3.297            3.039     62.91   2506.90
         B          3.322            3.039     62.90   2506.33
         B          3.325            3.039     62.90   2506.25
         B          3.321            3.039     62.90   2506.36
         B          3.319            3.039     62.90   2506.39
         B          3.315            3.039     62.90   2506.50
         B          3.314            3.039     62.90   2506.51
         B          3.297            3.039     62.91   2506.88
         B          3.303            3.039     62.91   2506.76
         B          3.317            3.039     62.90   2506.43
         B          3.316            3.039     62.90   2506.45
         B          3.318            3.039     62.90   2506.42
         B          3.319            3.039     62.90   2506.39
         B          3.319            3.039     62.90   2506.40
         B          3.327            3.039     62.90   2506.21
         B          3.323            3.039     62.90   2506.30
         B          3.317            3.039     62.90   2506.44
         B          3.319            3.039     62.90   2506.40
         B          3.316            3.039     62.90   2506.45
         B          3.321            3.039     62.90   2506.36
         B          3.323            3.039     62.90   2506.31
         B          3.325            3.039     62.90   2506.26
         B          3.325            3.039     62.90   2506.26
         B          3.325            3.039     62.90   2506.24
         N          3.129            2.478     31.22    688.74
         N          3.128            2.478     31.22    688.75
         N          3.125            2.478     31.22    688.79
         N          3.128            2.478     31.22    688.75
         N          3.130            2.478     31.22    688.73
         N          3.129            2.478     31.22    688.75
         N          3.129            2.478     31.22    688.75
         N          3.129            2.478     31.22    688.75
         N          3.129            2.478     31.22    688.74
         N          3.124            2.478     31.22    688.79
         N          3.123            2.478     31.22    688.80
         N          3.132            2.478     31.22    688.72
         N          3.130            2.478     31.22    688.74
         N          3.129            2.478     31.22    688.75
         N          3.130            2.478     31.22    688.74
         N          3.129            2.478     31.22    688.74
         N          3.132            2.478     31.22    688.71
         C1         3.192            2.750     50.14   1450.24
         N          3.134            2.478     31.22    688.70
         N          3.132            2.478     31.22    688.72
         N          3.130            2.478     31.22    688.73
         N          3.129            2.478     31.22    688.75
         N          3.127            2.478     31.22    688.76
         N          3.126            2.478     31.22    688.78
         N          3.155            2.478     31.21    688.52
         C3         3.192            2.750     50.14   1450.24
         N          3.123            2.478     31.22    688.80
         N          3.128            2.478     31.22    688.75
         N          3.127            2.478     31.22    688.77
         N          3.127            2.478     31.22    688.76
         N          3.127            2.478     31.22    688.77
         N          3.126            2.478     31.22    688.78
         N          3.132            2.478     31.22    688.71
         N          3.124            2.478     31.22    688.79
         N          3.125            2.478     31.22    688.79
         N          3.126            2.478     31.22    688.77
         N          3.126            2.478     31.22    688.77
         N          3.127            2.478     31.22    688.76
         N          3.127            2.478     31.22    688.76
         N          3.129            2.478     31.22    688.74
         N          3.129            2.478     31.22    688.74
         N          3.128            2.478     31.22    688.75
         N          3.129            2.478     31.22    688.74
         N          3.126            2.478     31.22    688.77
         N          3.127            2.478     31.22    688.77
         N          3.129            2.478     31.22    688.75
         N          3.130            2.478     31.22    688.74
         N          3.129            2.478     31.22    688.75
         N          3.129            2.478     31.22    688.74

         Molecular C6 ( Ry / a.u.^6 ) =    437698.49


     gamma-point specific algorithms are used

     Subspace diagonalization in iterative solution of the eigenvalue problem:
     one sub-group per band group will be used
     scalapack distributed-memory algorithm (size of sub-group:  5*  5 procs)

     Message from routine setup:
     DEPRECATED: symmetry with ibrav=0, use correct ibrav instead
 
     Parallelization info
     --------------------
     sticks:   dense  smooth     PW     G-vecs:    dense   smooth      PW
     Min         189     189     46                19306    19306    2402
     Max         192     192     48                19326    19326    2424
     Sum       12161   12161   3049              1236509  1236509  154657
 


     bravais-lattice index     =            0
     lattice parameter (alat)  =      33.2346  a.u.
     unit-cell volume          =   36184.3878 (a.u.)^3
     number of atoms/cell      =           98
     number of atomic types    =            5
     number of electrons       =       391.00
     number of Kohn-Sham states=          245
     kinetic-energy cutoff     =      40.0000  Ry
     charge density cutoff     =     160.0000  Ry
     convergence threshold     =      1.0E-12
     mixing beta               =       0.7000
     number of iterations used =            8  plain     mixing
     Exchange-correlation      = SLA PW PBX PBC ( 1  4  3  4 0 0)
     Using LIBXC version       =    4   3   4
     nstep                     =           50


     celldm(1)=  33.234611  celldm(2)=   0.000000  celldm(3)=   0.000000
     celldm(4)=   0.000000  celldm(5)=   0.000000  celldm(6)=   0.000000

     crystal axes: (cart. coord. in units of alat)
               a(1) = (   1.000639  -0.000348   0.000000 )  
               a(2) = (  -0.500621   0.866405   0.000000 )  
               a(3) = (   0.000000   0.000000   1.137204 )  

     reciprocal axes: (cart. coord. in units 2 pi/alat)
               b(1) = (  0.999562  0.577561  0.000000 )  
               b(2) = (  0.000402  1.154427  0.000000 )  
               b(3) = (  0.000000  0.000000  0.879350 )  


     PseudoPot. # 1 for B  read from file:
     ./pseudo/B.pbe-n-kjpaw_psl.1.0.0.UPF
     MD5 check sum: 8c825a5969375aca5c2c6ad5945b3059
     Pseudo is Projector augmented-wave + core cor, Zval =  3.0
     Generated using "atomic" code by A. Dal Corso v.6.3
     Shape of augmentation charge: PSQ
     Using radial grid of 1059 points,  4 beta functions with: 
                l(1) =   0
                l(2) =   0
                l(3) =   1
                l(4) =   1
     Q(r) pseudized with 0 coefficients 


     PseudoPot. # 2 for N  read from file:
     ./pseudo/N.pbe-n-kjpaw_psl.1.0.0.UPF
     MD5 check sum: 14c48229446f9f2d411169a3abcbc3fa
     Pseudo is Projector augmented-wave + core cor, Zval =  5.0
     Generated using "atomic" code by A. Dal Corso v.6.3
     Shape of augmentation charge: PSQ
     Using radial grid of 1085 points,  4 beta functions with: 
                l(1) =   0
                l(2) =   0
                l(3) =   1
                l(4) =   1
     Q(r) pseudized with 0 coefficients 


     PseudoPot. # 3 for C  read from file:
     ./pseudo/C.pbe-n-kjpaw_psl.1.0.0.UPF
     MD5 check sum: 5f16ad9a65e90284d1d834d4ab3b0f7d
     Pseudo is Projector augmented-wave + core cor, Zval =  4.0
     Generated using "atomic" code by A. Dal Corso v.6.3
     Shape of augmentation charge: PSQ
     Using radial grid of 1073 points,  4 beta functions with: 
                l(1) =   0
                l(2) =   0
                l(3) =   1
                l(4) =   1
     Q(r) pseudized with 0 coefficients 


     PseudoPot. # 4 for C  read from file:
     ./pseudo/C.pbe-n-kjpaw_psl.1.0.0.UPF
     MD5 check sum: 5f16ad9a65e90284d1d834d4ab3b0f7d
     Pseudo is Projector augmented-wave + core cor, Zval =  4.0
     Generated using "atomic" code by A. Dal Corso v.6.3
     Shape of augmentation charge: PSQ
     Using radial grid of 1073 points,  4 beta functions with: 
                l(1) =   0
                l(2) =   0
                l(3) =   1
                l(4) =   1
     Q(r) pseudized with 0 coefficients 


     PseudoPot. # 5 for C  read from file:
     ./pseudo/C.pbe-n-kjpaw_psl.1.0.0.UPF
     MD5 check sum: 5f16ad9a65e90284d1d834d4ab3b0f7d
     Pseudo is Projector augmented-wave + core cor, Zval =  4.0
     Generated using "atomic" code by A. Dal Corso v.6.3
     Shape of augmentation charge: PSQ
     Using radial grid of 1073 points,  4 beta functions with: 
                l(1) =   0
                l(2) =   0
                l(3) =   1
                l(4) =   1
     Q(r) pseudized with 0 coefficients 


     atomic species   valence    mass     pseudopotential
        B              3.00    10.00000     B ( 1.00)
        N              5.00    14.00000     N ( 1.00)
        C1             4.00    12.00000     C ( 1.00)
        C2             4.00    12.00000     C ( 1.00)
        C3             4.00    12.00000     C ( 1.00)

     Starting magnetic structure 
     atomic species   magnetization
        B            0.000
        N            0.000
        C1           1.000
        C2           0.000
        C3           0.000

      2 Sym. Ops. (no inversion) found



   Cartesian axes

     site n.     atom                  positions (alat units)
         1           B   tau(   1) = (  -0.0000236   0.0821617   0.5686018  )
         2           B   tau(   2) = (  -0.0713864   0.2062012   0.5686018  )
         3           B   tau(   3) = (  -0.1430778   0.3301034   0.5686018  )
         4           B   tau(   4) = (  -0.2149371   0.4537631   0.5686018  )
         5           B   tau(   5) = (  -0.2861750   0.5775430   0.5686018  )
         6           B   tau(   6) = (  -0.3574864   0.7014372   0.5686018  )
         7           B   tau(   7) = (  -0.4290708   0.8250954   0.5686018  )
         8           B   tau(   8) = (   0.1428776   0.0818579   0.5686018  )
         9           B   tau(   9) = (   0.0712222   0.2053692   0.5686018  )
        10           B   tau(  10) = (   0.0002336   0.3301363   0.5686018  )
        11           B   tau(  11) = (  -0.0725297   0.4539838   0.5686018  )
        12           B   tau(  12) = (  -0.1441448   0.5777654   0.5686018  )
        13           B   tau(  13) = (  -0.2149178   0.7014541   0.5686018  )
        14           B   tau(  14) = (  -0.2861875   0.8249306   0.5686018  )
        15           B   tau(  15) = (   0.2862129   0.0818142   0.5686018  )
        16           B   tau(  16) = (   0.2148451   0.2045688   0.5686018  )
        17           B   tau(  17) = (   0.1436182   0.3272081   0.5686018  )
        18           B   tau(  18) = (   0.0696299   0.4562047   0.5686018  )
        19           B   tau(  19) = (  -0.0025924   0.5788679   0.5686018  )
        20           B   tau(  20) = (  -0.0724138   0.7020072   0.5686018  )
        21           B   tau(  21) = (  -0.1432363   0.8251202   0.5686018  )
        22           B   tau(  22) = (   0.4289841   0.0823579   0.5686018  )
        23           B   tau(  23) = (   0.3574535   0.2061245   0.5686018  )
        24           B   tau(  24) = (   0.2853661   0.3296795   0.5686018  )
        25           C2  tau(  25) = (   0.2152535   0.4530945   0.5686018  )
        26           B   tau(  26) = (   0.1397482   0.5776532   0.5686018  )
        27           B   tau(  27) = (   0.0705918   0.7018774   0.5686018  )
        28           B   tau(  28) = (  -0.0004209   0.8253162   0.5686018  )
        29           B   tau(  29) = (   0.5717757   0.0822448   0.5686018  )
        30           B   tau(  30) = (   0.5003550   0.2060419   0.5686018  )
        31           B   tau(  31) = (   0.4287223   0.3298482   0.5686018  )
        32           B   tau(  32) = (   0.3571903   0.4540826   0.5686018  )
        33           B   tau(  33) = (   0.2884566   0.5780757   0.5686018  )
        34           B   tau(  34) = (   0.2142284   0.7007863   0.5686018  )
        35           B   tau(  35) = (   0.1426012   0.8249141   0.5686018  )
        36           B   tau(  36) = (   0.7147675   0.0821490   0.5686018  )
        37           B   tau(  37) = (   0.6432410   0.2059958   0.5686018  )
        38           B   tau(  38) = (   0.5717580   0.3297156   0.5686018  )
        39           B   tau(  39) = (   0.5002357   0.4534306   0.5686018  )
        40           B   tau(  40) = (   0.4302788   0.5777110   0.5686018  )
        41           B   tau(  41) = (   0.3577741   0.7016919   0.5686018  )
        42           B   tau(  42) = (   0.2857494   0.8247786   0.5686018  )
        43           B   tau(  43) = (   0.8578470   0.0820930   0.5686018  )
        44           B   tau(  44) = (   0.7862588   0.2059754   0.5686018  )
        45           B   tau(  45) = (   0.7146799   0.3297621   0.5686018  )
        46           B   tau(  46) = (   0.6431861   0.4533666   0.5686018  )
        47           B   tau(  47) = (   0.5722714   0.5772821   0.5686018  )
        48           B   tau(  48) = (   0.5005660   0.7013923   0.5686018  )
        49           B   tau(  49) = (   0.4288522   0.8249964   0.5686018  )
        50           N   tau(  50) = (   0.0714326   0.0409764   0.5686018  )
        51           N   tau(  51) = (  -0.0001880   0.1644910   0.5686018  )
        52           N   tau(  52) = (  -0.0713551   0.2888778   0.5686018  )
        53           N   tau(  53) = (  -0.1436334   0.4125191   0.5686018  )
        54           N   tau(  54) = (  -0.2151390   0.5362327   0.5686018  )
        55           N   tau(  55) = (  -0.2862229   0.6600790   0.5686018  )
        56           N   tau(  56) = (  -0.3576340   0.7838514   0.5686018  )
        57           N   tau(  57) = (   0.2145158   0.0409098   0.5686018  )
        58           N   tau(  58) = (   0.1429484   0.1642147   0.5686018  )
        59           N   tau(  59) = (   0.0713665   0.2876061   0.5686018  )
        60           N   tau(  60) = (  -0.0007857   0.4130706   0.5686018  )
        61           N   tau(  61) = (  -0.0731776   0.5365809   0.5686018  )
        62           N   tau(  62) = (  -0.1436879   0.6603294   0.5686018  )
        63           N   tau(  63) = (  -0.2147386   0.7838936   0.5686018  )
        64           N   tau(  64) = (   0.3576142   0.0410201   0.5686018  )
        65           N   tau(  65) = (   0.2863748   0.1641479   0.5686018  )
        66           N   tau(  66) = (   0.2150132   0.2867951   0.5686018  )
        67           C1  tau(  67) = (   0.1457804   0.4134612   0.5686018  )
        68           N   tau(  68) = (   0.0679312   0.5381511   0.5686018  )
        69           N   tau(  69) = (  -0.0012634   0.6611400   0.5686018  )
        70           N   tau(  70) = (  -0.0719425   0.7842563   0.5686018  )
        71           N   tau(  71) = (   0.5003321   0.0412618   0.5686018  )
        72           N   tau(  72) = (   0.4288910   0.1649172   0.5686018  )
        73           N   tau(  73) = (   0.3571528   0.2888807   0.5686018  )
        74           N   tau(  74) = (   0.2850457   0.4127999   0.5686018  )
        75           C3  tau(  75) = (   0.2148403   0.5330765   0.5686018  )
        76           N   tau(  76) = (   0.1418955   0.6602019   0.5686018  )
        77           N   tau(  77) = (   0.0709493   0.7841873   0.5686018  )
        78           N   tau(  78) = (   0.6432797   0.0409899   0.5686018  )
        79           N   tau(  79) = (   0.5717923   0.1647687   0.5686018  )
        80           N   tau(  80) = (   0.5002135   0.2885728   0.5686018  )
        81           N   tau(  81) = (   0.4284164   0.4123130   0.5686018  )
        82           N   tau(  82) = (   0.3591529   0.5364523   0.5686018  )
        83           N   tau(  83) = (   0.2866272   0.6604485   0.5686018  )
        84           N   tau(  84) = (   0.2141650   0.7834132   0.5686018  )
        85           N   tau(  85) = (   0.7862873   0.0408976   0.5686018  )
        86           N   tau(  86) = (   0.7147519   0.1647090   0.5686018  )
        87           N   tau(  87) = (   0.6432204   0.2884858   0.5686018  )
        88           N   tau(  88) = (   0.5716411   0.4121676   0.5686018  )
        89           N   tau(  89) = (   0.5010492   0.5359750   0.5686018  )
        90           N   tau(  90) = (   0.4292782   0.6601524   0.5686018  )
        91           N   tau(  91) = (   0.3574707   0.7839740   0.5686018  )
        92           N   tau(  92) = (   0.9292442   0.0408717   0.5686018  )
        93           N   tau(  93) = (   0.8577433   0.1646632   0.5686018  )
        94           N   tau(  94) = (   0.7861596   0.2884652   0.5686018  )
        95           N   tau(  95) = (   0.7144503   0.4121256   0.5686018  )
        96           N   tau(  96) = (   0.6433008   0.5358437   0.5686018  )
        97           N   tau(  97) = (   0.5718471   0.6598257   0.5686018  )
        98           N   tau(  98) = (   0.5002478   0.7837061   0.5686018  )

     number of k points=     1
                       cart. coord. in units 2pi/alat
        k(    1) = (   0.0000000   0.0000000   0.0000000), wk =   1.0000000

     Dense  grid:   618255 G-vectors     FFT dimensions: ( 135, 135, 160)

     Occupations read from input 

      Spin-up

        1.0000   1.0000   1.0000   1.0000   1.0000   1.0000   1.0000   1.0000
        1.0000   1.0000   1.0000   1.0000   1.0000   1.0000   1.0000   1.0000
        1.0000   1.0000   1.0000   1.0000   1.0000   1.0000   1.0000   1.0000
        1.0000   1.0000   1.0000   1.0000   1.0000   1.0000   1.0000   1.0000
        1.0000   1.0000   1.0000   1.0000   1.0000   1.0000   1.0000   1.0000
        1.0000   1.0000   1.0000   1.0000   1.0000   1.0000   1.0000   1.0000
        1.0000   1.0000   1.0000   1.0000   1.0000   1.0000   1.0000   1.0000
        1.0000   1.0000   1.0000   1.0000   1.0000   1.0000   1.0000   1.0000
        1.0000   1.0000   1.0000   1.0000   1.0000   1.0000   1.0000   1.0000
        1.0000   1.0000   1.0000   1.0000   1.0000   1.0000   1.0000   1.0000
        1.0000   1.0000   1.0000   1.0000   1.0000   1.0000   1.0000   1.0000
        1.0000   1.0000   1.0000   1.0000   1.0000   1.0000   1.0000   1.0000
        1.0000   1.0000   1.0000   1.0000   1.0000   1.0000   1.0000   1.0000
        1.0000   1.0000   1.0000   1.0000   1.0000   1.0000   1.0000   1.0000
        1.0000   1.0000   1.0000   1.0000   1.0000   1.0000   1.0000   1.0000
        1.0000   1.0000   1.0000   1.0000   1.0000   1.0000   1.0000   1.0000
        1.0000   1.0000   1.0000   1.0000   1.0000   1.0000   1.0000   1.0000
        1.0000   1.0000   1.0000   1.0000   1.0000   1.0000   1.0000   1.0000
        1.0000   1.0000   1.0000   1.0000   1.0000   1.0000   1.0000   1.0000
        1.0000   1.0000   1.0000   1.0000   1.0000   1.0000   1.0000   1.0000
        1.0000   1.0000   1.0000   1.0000   1.0000   1.0000   1.0000   1.0000
        1.0000   1.0000   1.0000   1.0000   1.0000   1.0000   1.0000   1.0000
        1.0000   1.0000   1.0000   1.0000   1.0000   1.0000   1.0000   1.0000
        1.0000   1.0000   1.0000   1.0000   1.0000   1.0000   1.0000   1.0000
        1.0000   1.0000   1.0000   1.0000   0.0000   0.0000   0.0000   0.0000
        0.0000   0.0000   0.0000   0.0000   0.0000   0.0000   0.0000   0.0000
        0.0000   0.0000   0.0000   0.0000   0.0000   0.0000   0.0000   0.0000
        0.0000   0.0000   0.0000   0.0000   0.0000   0.0000   0.0000   0.0000
        0.0000   0.0000   0.0000   0.0000   0.0000   0.0000   0.0000   0.0000
        0.0000   0.0000   0.0000   0.0000   0.0000   0.0000   0.0000   0.0000
        0.0000   0.0000   0.0000   0.0000   0.0000

      Spin-down

        1.0000   1.0000   1.0000   1.0000   1.0000   1.0000   1.0000   1.0000
        1.0000   1.0000   1.0000   1.0000   1.0000   1.0000   1.0000   1.0000
        1.0000   1.0000   1.0000   1.0000   1.0000   1.0000   1.0000   1.0000
        1.0000   1.0000   1.0000   1.0000   1.0000   1.0000   1.0000   1.0000
        1.0000   1.0000   1.0000   1.0000   1.0000   1.0000   1.0000   1.0000
        1.0000   1.0000   1.0000   1.0000   1.0000   1.0000   1.0000   1.0000
        1.0000   1.0000   1.0000   1.0000   1.0000   1.0000   1.0000   1.0000
        1.0000   1.0000   1.0000   1.0000   1.0000   1.0000   1.0000   1.0000
        1.0000   1.0000   1.0000   1.0000   1.0000   1.0000   1.0000   1.0000
        1.0000   1.0000   1.0000   1.0000   1.0000   1.0000   1.0000   1.0000
        1.0000   1.0000   1.0000   1.0000   1.0000   1.0000   1.0000   1.0000
        1.0000   1.0000   1.0000   1.0000   1.0000   1.0000   1.0000   1.0000
        1.0000   1.0000   1.0000   1.0000   1.0000   1.0000   1.0000   1.0000
        1.0000   1.0000   1.0000   1.0000   1.0000   1.0000   1.0000   1.0000
        1.0000   1.0000   1.0000   1.0000   1.0000   1.0000   1.0000   1.0000
        1.0000   1.0000   1.0000   1.0000   1.0000   1.0000   1.0000   1.0000
        1.0000   1.0000   1.0000   1.0000   1.0000   1.0000   1.0000   1.0000
        1.0000   1.0000   1.0000   1.0000   1.0000   1.0000   1.0000   1.0000
        1.0000   1.0000   1.0000   1.0000   1.0000   1.0000   1.0000   1.0000
        1.0000   1.0000   1.0000   1.0000   1.0000   1.0000   1.0000   1.0000
        1.0000   1.0000   1.0000   1.0000   1.0000   1.0000   1.0000   1.0000
        1.0000   1.0000   1.0000   1.0000   1.0000   1.0000   1.0000   1.0000
        1.0000   1.0000   1.0000   1.0000   1.0000   1.0000   1.0000   1.0000
        1.0000   1.0000   1.0000   1.0000   1.0000   1.0000   1.0000   1.0000
        1.0000   1.0000   1.0000   0.0000   0.0000   0.0000   0.0000   0.0000
        0.0000   0.0000   0.0000   0.0000   0.0000   0.0000   0.0000   0.0000
        0.0000   0.0000   0.0000   0.0000   0.0000   0.0000   0.0000   0.0000
        0.0000   0.0000   0.0000   0.0000   0.0000   0.0000   0.0000   0.0000
        0.0000   0.0000   0.0000   0.0000   0.0000   0.0000   0.0000   0.0000
        0.0000   0.0000   0.0000   0.0000   0.0000   0.0000   0.0000   0.0000
        0.0000   0.0000   0.0000   0.0000   0.0000

     Estimated max dynamical RAM per process >     122.29 MB

     Estimated total dynamical RAM >       7.64 GB
     Generating pointlists ...
     new r_m :   0.0336 (alat units)  1.1164 (a.u.) for type    1
     new r_m :   0.0332 (alat units)  1.1048 (a.u.) for type    2
     new r_m :   0.0330 (alat units)  1.0965 (a.u.) for type    3
     new r_m :   0.0330 (alat units)  1.0965 (a.u.) for type    4
     new r_m :   0.0330 (alat units)  1.0965 (a.u.) for type    5

     Check: negative core charge=   -0.000006

     Initial potential from superposition of free atoms

     starting charge  390.98597, renormalised to  391.00000

     negative rho (up, down):  5.502E-02 5.967E-02
     Starting wfcs are  392 randomized atomic wfcs
     Checking if some PAW data can be deallocated... 

     total cpu time spent up to now is        8.0 secs

     Self-consistent Calculation

     iteration #  1     ecut=    40.00 Ry     beta= 0.70
     CG style diagonalization
     ethr =  1.00E-02,  avg # of iterations =  3.1

     negative rho (up, down):  3.273E-01 9.821E-03

     total cpu time spent up to now is       44.6 secs

     total energy              =   -1933.43726828 Ry
     Harris-Foulkes estimate   =   -1946.64586312 Ry
     estimated scf accuracy    <      19.99721909 Ry

     total magnetization       =     1.00 Bohr mag/cell
     absolute magnetization    =     1.51 Bohr mag/cell

     iteration #  2     ecut=    40.00 Ry     beta= 0.70
     CG style diagonalization
     ethr =  5.11E-03,  avg # of iterations =  4.0

     negative rho (up, down):  3.630E-01 7.109E-03

     total cpu time spent up to now is       80.2 secs

     total energy              =   -1937.82788113 Ry
     Harris-Foulkes estimate   =   -1943.95342206 Ry
     estimated scf accuracy    <      11.99906421 Ry

     total magnetization       =     1.00 Bohr mag/cell
     absolute magnetization    =     1.37 Bohr mag/cell

     iteration #  3     ecut=    40.00 Ry     beta= 0.70
     CG style diagonalization
     ethr =  3.07E-03,  avg # of iterations =  3.8

     negative rho (up, down):  4.318E-01 6.447E-03

     total cpu time spent up to now is      113.0 secs

     total energy              =   -1940.31680228 Ry
     Harris-Foulkes estimate   =   -1940.50863148 Ry
     estimated scf accuracy    <       0.35005100 Ry

     total magnetization       =     1.00 Bohr mag/cell
     absolute magnetization    =     1.22 Bohr mag/cell

     iteration #  4     ecut=    40.00 Ry     beta= 0.70
     CG style diagonalization
     c_bands:  5 eigenvalues not converged
     ethr =  8.95E-05,  avg # of iterations =  6.6

     negative rho (up, down):  4.605E-01 5.591E-03

     total cpu time spent up to now is      172.6 secs

     total energy              =   -1940.40142347 Ry
     Harris-Foulkes estimate   =   -1940.59390341 Ry
     estimated scf accuracy    <       0.49407614 Ry

     total magnetization       =     1.00 Bohr mag/cell
     absolute magnetization    =     1.21 Bohr mag/cell

     iteration #  5     ecut=    40.00 Ry     beta= 0.70
     CG style diagonalization
     c_bands:  1 eigenvalues not converged
     ethr =  8.95E-05,  avg # of iterations =  3.4

     negative rho (up, down):  4.740E-01 5.317E-03

     total cpu time spent up to now is      201.2 secs

     total energy              =   -1940.47801317 Ry
     Harris-Foulkes estimate   =   -1940.48486434 Ry
     estimated scf accuracy    <       0.01844246 Ry

     total magnetization       =     1.00 Bohr mag/cell
     absolute magnetization    =     1.19 Bohr mag/cell

     iteration #  6     ecut=    40.00 Ry     beta= 0.70
     CG style diagonalization
     c_bands:  3 eigenvalues not converged
     c_bands:  4 eigenvalues not converged
     ethr =  4.72E-06,  avg # of iterations =  4.7

     negative rho (up, down):  4.861E-01 5.375E-03

     total cpu time spent up to now is      244.4 secs

     total energy              =   -1940.48386149 Ry
     Harris-Foulkes estimate   =   -1940.48600914 Ry
     estimated scf accuracy    <       0.00833883 Ry

     total magnetization       =     1.00 Bohr mag/cell
     absolute magnetization    =     1.20 Bohr mag/cell

     iteration #  7     ecut=    40.00 Ry     beta= 0.70
     CG style diagonalization
     c_bands:  4 eigenvalues not converged
     ethr =  2.13E-06,  avg # of iterations =  7.5

     negative rho (up, down):  4.874E-01 5.427E-03

     total cpu time spent up to now is      308.5 secs

     total energy              =   -1940.48588161 Ry
     Harris-Foulkes estimate   =   -1940.48615635 Ry
     estimated scf accuracy    <       0.00107218 Ry

     total magnetization       =     1.00 Bohr mag/cell
     absolute magnetization    =     1.21 Bohr mag/cell

     iteration #  8     ecut=    40.00 Ry     beta= 0.70
     CG style diagonalization
     c_bands:  2 eigenvalues not converged
     ethr =  2.74E-07,  avg # of iterations =  3.5

     negative rho (up, down):  4.869E-01 5.479E-03

     total cpu time spent up to now is      338.4 secs

     total energy              =   -1940.48598491 Ry
     Harris-Foulkes estimate   =   -1940.48607318 Ry
     estimated scf accuracy    <       0.00032228 Ry

     total magnetization       =     1.00 Bohr mag/cell
     absolute magnetization    =     1.21 Bohr mag/cell

     iteration #  9     ecut=    40.00 Ry     beta= 0.70
     CG style diagonalization
     c_bands:  2 eigenvalues not converged
     ethr =  8.24E-08,  avg # of iterations =  3.9

     negative rho (up, down):  4.867E-01 5.533E-03

     total cpu time spent up to now is      373.6 secs

     total energy              =   -1940.48611872 Ry
     Harris-Foulkes estimate   =   -1940.48609881 Ry
     estimated scf accuracy    <       0.00004261 Ry

     total magnetization       =     1.00 Bohr mag/cell
     absolute magnetization    =     1.20 Bohr mag/cell

     iteration # 10     ecut=    40.00 Ry     beta= 0.70
     CG style diagonalization
     ethr =  1.09E-08,  avg # of iterations =  3.5

     negative rho (up, down):  4.866E-01 5.548E-03

     total cpu time spent up to now is      404.1 secs

     total energy              =   -1940.48612758 Ry
     Harris-Foulkes estimate   =   -1940.48613283 Ry
     estimated scf accuracy    <       0.00003116 Ry

     total magnetization       =     1.00 Bohr mag/cell
     absolute magnetization    =     1.20 Bohr mag/cell

     iteration # 11     ecut=    40.00 Ry     beta= 0.70
     CG style diagonalization
     ethr =  7.97E-09,  avg # of iterations =  3.3

     negative rho (up, down):  4.868E-01 5.548E-03

     total cpu time spent up to now is      432.2 secs

     total energy              =   -1940.48613109 Ry
     Harris-Foulkes estimate   =   -1940.48613329 Ry
     estimated scf accuracy    <       0.00000527 Ry

     total magnetization       =     1.00 Bohr mag/cell
     absolute magnetization    =     1.20 Bohr mag/cell

     iteration # 12     ecut=    40.00 Ry     beta= 0.70
     CG style diagonalization
     ethr =  1.35E-09,  avg # of iterations =  3.9

     negative rho (up, down):  4.867E-01 5.555E-03

     total cpu time spent up to now is      467.3 secs

     total energy              =   -1940.48613302 Ry
     Harris-Foulkes estimate   =   -1940.48613299 Ry
     estimated scf accuracy    <       0.00000056 Ry

     total magnetization       =     1.00 Bohr mag/cell
     absolute magnetization    =     1.20 Bohr mag/cell

     iteration # 13     ecut=    40.00 Ry     beta= 0.70
     CG style diagonalization
     ethr =  1.43E-10,  avg # of iterations =  3.6

     negative rho (up, down):  4.867E-01 5.558E-03

     total cpu time spent up to now is      498.5 secs

     total energy              =   -1940.48613324 Ry
     Harris-Foulkes estimate   =   -1940.48613326 Ry
     estimated scf accuracy    <       0.00000010 Ry

     total magnetization       =     1.00 Bohr mag/cell
     absolute magnetization    =     1.21 Bohr mag/cell

     iteration # 14     ecut=    40.00 Ry     beta= 0.70
     CG style diagonalization
     ethr =  2.46E-11,  avg # of iterations =  3.7

     negative rho (up, down):  4.867E-01 5.559E-03

     total cpu time spent up to now is      530.2 secs

     total energy              =   -1940.48613325 Ry
     Harris-Foulkes estimate   =   -1940.48613326 Ry
     estimated scf accuracy    <       0.00000001 Ry

     total magnetization       =     1.00 Bohr mag/cell
     absolute magnetization    =     1.21 Bohr mag/cell

     iteration # 15     ecut=    40.00 Ry     beta= 0.70
     CG style diagonalization
     ethr =  3.12E-12,  avg # of iterations =  4.0

     negative rho (up, down):  4.867E-01 5.557E-03

     total cpu time spent up to now is      565.3 secs

     total energy              =   -1940.48613326 Ry
     Harris-Foulkes estimate   =   -1940.48613326 Ry
     estimated scf accuracy    <          5.8E-09 Ry

     total magnetization       =     1.00 Bohr mag/cell
     absolute magnetization    =     1.21 Bohr mag/cell

     iteration # 16     ecut=    40.00 Ry     beta= 0.70
     CG style diagonalization
     ethr =  1.49E-12,  avg # of iterations =  3.3

     negative rho (up, down):  4.867E-01 5.557E-03

     total cpu time spent up to now is      592.5 secs

     total energy              =   -1940.48613326 Ry
     Harris-Foulkes estimate   =   -1940.48613326 Ry
     estimated scf accuracy    <          1.4E-09 Ry

     total magnetization       =     1.00 Bohr mag/cell
     absolute magnetization    =     1.20 Bohr mag/cell

     iteration # 17     ecut=    40.00 Ry     beta= 0.70
     CG style diagonalization
     ethr =  3.55E-13,  avg # of iterations =  3.7

     negative rho (up, down):  4.867E-01 5.557E-03

     total cpu time spent up to now is      624.4 secs

     total energy              =   -1940.48613326 Ry
     Harris-Foulkes estimate   =   -1940.48613326 Ry
     estimated scf accuracy    <          8.0E-11 Ry

     total magnetization       =     1.00 Bohr mag/cell
     absolute magnetization    =     1.20 Bohr mag/cell

     iteration # 18     ecut=    40.00 Ry     beta= 0.70
     CG style diagonalization
     ethr =  1.00E-13,  avg # of iterations =  3.1

     negative rho (up, down):  4.867E-01 5.557E-03

     total cpu time spent up to now is      650.3 secs

     total energy              =   -1940.48613326 Ry
     Harris-Foulkes estimate   =   -1940.48613326 Ry
     estimated scf accuracy    <          2.7E-11 Ry

     total magnetization       =     1.00 Bohr mag/cell
     absolute magnetization    =     1.20 Bohr mag/cell

     iteration # 19     ecut=    40.00 Ry     beta= 0.70
     CG style diagonalization
     ethr =  1.00E-13,  avg # of iterations =  3.0

     negative rho (up, down):  4.867E-01 5.557E-03

     total cpu time spent up to now is      674.8 secs

     total energy              =   -1940.48613326 Ry
     Harris-Foulkes estimate   =   -1940.48613326 Ry
     estimated scf accuracy    <          2.3E-12 Ry

     total magnetization       =     1.00 Bohr mag/cell
     absolute magnetization    =     1.20 Bohr mag/cell

     iteration # 20     ecut=    40.00 Ry     beta= 0.70
     CG style diagonalization
     ethr =  1.00E-13,  avg # of iterations =  3.0

     negative rho (up, down):  4.867E-01 5.557E-03

     total cpu time spent up to now is      699.2 secs

     total energy              =   -1940.48613326 Ry
     Harris-Foulkes estimate   =   -1940.48613326 Ry
     estimated scf accuracy    <          1.5E-12 Ry

     total magnetization       =     1.00 Bohr mag/cell
     absolute magnetization    =     1.20 Bohr mag/cell

     iteration # 21     ecut=    40.00 Ry     beta= 0.70
     CG style diagonalization
     ethr =  1.00E-13,  avg # of iterations =  3.0

     negative rho (up, down):  4.867E-01 5.557E-03
 
     Magnetic moment per site:
     atom:    1    charge:    0.8506    magn:   -0.0000    constr:    0.0000
     atom:    2    charge:    0.8460    magn:    0.0003    constr:    0.0000
     atom:    3    charge:    0.8474    magn:    0.0007    constr:    0.0000
     atom:    4    charge:    0.8499    magn:   -0.0000    constr:    0.0000
     atom:    5    charge:    0.8524    magn:    0.0000    constr:    0.0000
     atom:    6    charge:    0.8504    magn:    0.0001    constr:    0.0000
     atom:    7    charge:    0.8511    magn:   -0.0000    constr:    0.0000
     atom:    8    charge:    0.8498    magn:    0.0001    constr:    0.0000
     atom:    9    charge:    0.8510    magn:   -0.0003    constr:    0.0000
     atom:   10    charge:    0.8407    magn:    0.0030    constr:    0.0000
     atom:   11    charge:    0.8473    magn:    0.0005    constr:    0.0000
     atom:   12    charge:    0.8537    magn:    0.0001    constr:    0.0000
     atom:   13    charge:    0.8529    magn:   -0.0000    constr:    0.0000
     atom:   14    charge:    0.8504    magn:    0.0001    constr:    0.0000
     atom:   15    charge:    0.8506    magn:   -0.0001    constr:    0.0000
     atom:   16    charge:    0.8542    magn:    0.0001    constr:    0.0000
     atom:   17    charge:    0.8610    magn:    0.0025    constr:    0.0000
     atom:   18    charge:    0.8515    magn:    0.0074    constr:    0.0000
     atom:   19    charge:    0.8613    magn:   -0.0003    constr:    0.0000
     atom:   20    charge:    0.8537    magn:    0.0001    constr:    0.0000
     atom:   21    charge:    0.8524    magn:    0.0000    constr:    0.0000
     atom:   22    charge:    0.8478    magn:    0.0000    constr:    0.0000
     atom:   23    charge:    0.8445    magn:    0.0003    constr:    0.0000
     atom:   24    charge:    0.8439    magn:   -0.0007    constr:    0.0000
     atom:   25    charge:    1.6283    magn:   -0.0264    constr:    0.0000
     atom:   26    charge:    0.8515    magn:    0.0074    constr:    0.0000
     atom:   27    charge:    0.8473    magn:    0.0005    constr:    0.0000
     atom:   28    charge:    0.8499    magn:   -0.0000    constr:    0.0000
     atom:   29    charge:    0.8472    magn:    0.0001    constr:    0.0000
     atom:   30    charge:    0.8485    magn:    0.0000    constr:    0.0000
     atom:   31    charge:    0.8486    magn:   -0.0003    constr:    0.0000
     atom:   32    charge:    0.8439    magn:   -0.0007    constr:    0.0000
     atom:   33    charge:    0.8610    magn:    0.0025    constr:    0.0000
     atom:   34    charge:    0.8407    magn:    0.0030    constr:    0.0000
     atom:   35    charge:    0.8474    magn:    0.0007    constr:    0.0000
     atom:   36    charge:    0.8467    magn:    0.0003    constr:    0.0000
     atom:   37    charge:    0.8466    magn:   -0.0000    constr:    0.0000
     atom:   38    charge:    0.8485    magn:    0.0000    constr:    0.0000
     atom:   39    charge:    0.8445    magn:    0.0003    constr:    0.0000
     atom:   40    charge:    0.8542    magn:    0.0001    constr:    0.0000
     atom:   41    charge:    0.8510    magn:   -0.0003    constr:    0.0000
     atom:   42    charge:    0.8460    magn:    0.0003    constr:    0.0000
     atom:   43    charge:    0.8460    magn:   -0.0000    constr:    0.0000
     atom:   44    charge:    0.8467    magn:    0.0003    constr:    0.0000
     atom:   45    charge:    0.8472    magn:    0.0001    constr:    0.0000
     atom:   46    charge:    0.8478    magn:    0.0000    constr:    0.0000
     atom:   47    charge:    0.8506    magn:   -0.0001    constr:    0.0000
     atom:   48    charge:    0.8498    magn:    0.0001    constr:    0.0000
     atom:   49    charge:    0.8506    magn:   -0.0000    constr:    0.0000
     atom:   50    charge:    2.7562    magn:    0.0005    constr:    0.0000
     atom:   51    charge:    2.7527    magn:   -0.0001    constr:    0.0000
     atom:   52    charge:    2.7468    magn:    0.0029    constr:    0.0000
     atom:   53    charge:    2.7548    magn:    0.0000    constr:    0.0000
     atom:   54    charge:    2.7553    magn:    0.0001    constr:    0.0000
     atom:   55    charge:    2.7523    magn:    0.0000    constr:    0.0000
     atom:   56    charge:    2.7513    magn:   -0.0000    constr:    0.0000
     atom:   57    charge:    2.7519    magn:    0.0003    constr:    0.0000
     atom:   58    charge:    2.7538    magn:    0.0039    constr:    0.0000
     atom:   59    charge:    2.7483    magn:    0.0065    constr:    0.0000
     atom:   60    charge:    2.7447    magn:    0.0123    constr:    0.0000
     atom:   61    charge:    2.7574    magn:    0.0012    constr:    0.0000
     atom:   62    charge:    2.7515    magn:   -0.0001    constr:    0.0000
     atom:   63    charge:    2.7523    magn:    0.0000    constr:    0.0000
     atom:   64    charge:    2.7575    magn:    0.0000    constr:    0.0000
     atom:   65    charge:    2.7570    magn:    0.0003    constr:    0.0000
     atom:   66    charge:    2.7565    magn:    0.0159    constr:    0.0000
     atom:   67    charge:    1.6559    magn:    0.1192    constr:    0.0000
     atom:   68    charge:    2.7631    magn:   -0.0023    constr:    0.0000
     atom:   69    charge:    2.7574    magn:    0.0012    constr:    0.0000
     atom:   70    charge:    2.7553    magn:    0.0001    constr:    0.0000
     atom:   71    charge:    2.7555    magn:    0.0000    constr:    0.0000
     atom:   72    charge:    2.7510    magn:    0.0002    constr:    0.0000
     atom:   73    charge:    2.7489    magn:    0.0013    constr:    0.0000
     atom:   74    charge:    2.7339    magn:   -0.0027    constr:    0.0000
     atom:   75    charge:    1.6558    magn:    0.1192    constr:    0.0000
     atom:   76    charge:    2.7447    magn:    0.0123    constr:    0.0000
     atom:   77    charge:    2.7548    magn:    0.0000    constr:    0.0000
     atom:   78    charge:    2.7536    magn:    0.0001    constr:    0.0000
     atom:   79    charge:    2.7515    magn:   -0.0000    constr:    0.0000
     atom:   80    charge:    2.7497    magn:   -0.0001    constr:    0.0000
     atom:   81    charge:    2.7489    magn:    0.0013    constr:    0.0000
     atom:   82    charge:    2.7565    magn:    0.0159    constr:    0.0000
     atom:   83    charge:    2.7483    magn:    0.0065    constr:    0.0000
     atom:   84    charge:    2.7468    magn:    0.0029    constr:    0.0000
     atom:   85    charge:    2.7511    magn:    0.0004    constr:    0.0000
     atom:   86    charge:    2.7521    magn:   -0.0001    constr:    0.0000
     atom:   87    charge:    2.7515    magn:   -0.0000    constr:    0.0000
     atom:   88    charge:    2.7510    magn:    0.0002    constr:    0.0000
     atom:   89    charge:    2.7570    magn:    0.0003    constr:    0.0000
     atom:   90    charge:    2.7538    magn:    0.0039    constr:    0.0000
     atom:   91    charge:    2.7527    magn:   -0.0001    constr:    0.0000
     atom:   92    charge:    2.7569    magn:   -0.0000    constr:    0.0000
     atom:   93    charge:    2.7511    magn:    0.0004    constr:    0.0000
     atom:   94    charge:    2.7536    magn:    0.0001    constr:    0.0000
     atom:   95    charge:    2.7555    magn:    0.0000    constr:    0.0000
     atom:   96    charge:    2.7575    magn:    0.0000    constr:    0.0000
     atom:   97    charge:    2.7519    magn:    0.0003    constr:    0.0000
     atom:   98    charge:    2.7562    magn:    0.0005    constr:    0.0000

     total cpu time spent up to now is      723.5 secs

     End of self-consistent calculation

 ------ SPIN UP ------------


          k = 0.0000 0.0000 0.0000 ( 77329 PWs)   bands (ev):

   -21.7565 -21.5441 -21.3704 -21.3619 -21.3443 -21.2909 -21.2379 -20.8224
   -20.6291 -20.6122 -20.6108 -20.5280 -20.5156 -20.3924 -20.2726 -20.2649
   -20.2430 -20.1090 -20.0961 -19.5557 -19.3731 -19.3707 -19.3674 -19.3561
   -19.3543 -19.3459 -19.3458 -19.3136 -19.2963 -19.1428 -19.1357 -19.0017
   -18.9498 -18.9493 -18.9206 -18.7546 -18.7475 -18.5219 -18.5119 -18.5003
   -18.4884 -18.4277 -18.4106 -18.3580 -18.3344 -18.3313 -18.3168 -17.0427
   -15.0734 -13.0947 -12.7438 -12.7384 -12.7263 -12.6936 -12.6872 -12.6214
   -12.5445 -12.5122 -12.5073 -12.4567 -12.3943 -12.1317 -12.0462 -12.0331
   -12.0102 -11.9585 -11.9383 -11.5183 -11.4002 -11.3816 -11.3669 -11.3602
   -11.3484 -11.3391 -11.3366 -11.2944 -11.2818 -11.0997 -11.0277 -10.8506
   -10.6985 -10.6867 -10.6527 -10.6439 -10.4914 -10.0460 -10.0127  -9.9788
    -9.9089  -9.8609  -9.7945  -9.3743  -9.3049  -9.3025  -9.2813  -9.2584
    -9.2517  -9.1974  -9.0273  -8.9051  -8.8910  -8.8728  -8.8722  -8.8617
    -8.8594  -8.8555  -8.8438  -8.8279  -8.8057  -8.8048  -8.7984  -8.7976
    -8.7842  -8.7815  -8.7811  -8.7424  -8.7289  -8.6907  -8.6517  -8.6409
    -8.4575  -8.4458  -8.1704  -8.1630  -8.1623  -8.1136  -8.0670  -7.8962
    -7.8403  -7.8013  -7.7864  -7.7847  -7.7118  -7.7110  -7.5289  -7.4739
    -7.4718  -7.4403  -7.4244  -7.4133  -7.4125  -7.3819  -7.3710  -7.3254
    -7.3192  -7.3137  -7.2929  -7.2578  -7.2290  -7.2014  -7.1979  -7.0214
    -7.0038  -6.9722  -6.9361  -6.7923  -6.6335  -6.5134  -6.2137  -6.1660
    -6.1467  -6.1352  -6.0886  -6.0413  -6.0373  -6.0358  -6.0296  -6.0219
    -6.0162  -6.0150  -5.9915  -5.9744  -5.8752  -5.7932  -5.7928  -5.6759
    -5.4953  -5.4268  -5.4223  -5.4054  -5.3409  -5.2375  -5.0990  -5.0971
    -4.7737  -4.7482  -4.7328  -4.7268  -4.6675  -4.6316  -4.5220  -4.4864
    -4.4849  -4.4775  -4.3455  -3.5479   0.0809   0.1873   0.7096   0.7310
     0.7346   0.7408   0.7604   0.7652   0.7974   0.8178   0.8186   0.8219
     0.8256   0.8406   0.8487   0.8832   0.9038   0.9054   0.9327   0.9434
     0.9780   1.1630   1.2482   1.2492   1.2690   1.2772   1.3126   1.3288
     1.3310   1.3340   1.3439   1.3513   1.3901   1.4407   1.4425   1.4433
     1.4506   1.4530   1.4751   1.8863   2.1092   2.1134   2.1140   2.1309
     2.1346   2.1351   2.3295   2.3385   2.3441

 ------ SPIN DOWN ----------


          k = 0.0000 0.0000 0.0000 ( 77329 PWs)   bands (ev):

   -21.7512 -21.5407 -21.3683 -21.3605 -21.3435 -21.2831 -21.2303 -20.8197
   -20.6252 -20.6081 -20.6058 -20.5234 -20.5117 -20.3913 -20.2660 -20.2589
   -20.2396 -20.0969 -20.0863 -19.5489 -19.3695 -19.3692 -19.3652 -19.3542
   -19.3513 -19.3425 -19.3366 -19.3029 -19.2921 -19.1368 -19.1312 -18.9976
   -18.9459 -18.9444 -18.9163 -18.7446 -18.7384 -18.5153 -18.5084 -18.4951
   -18.4852 -18.4236 -18.4030 -18.3561 -18.3309 -18.3275 -18.3124 -16.8931
   -14.7837 -13.0531 -12.7420 -12.7344 -12.7239 -12.6905 -12.6854 -12.6174
   -12.5426 -12.5082 -12.5036 -12.4411 -12.3858 -12.1263 -12.0442 -12.0304
   -12.0054 -11.9468 -11.9301 -11.5084 -11.3942 -11.3775 -11.3652 -11.3588
   -11.3468 -11.3354 -11.3351 -11.2852 -11.2709 -11.0665 -11.0038 -10.8464
   -10.6967 -10.6848 -10.6428 -10.6388 -10.4784 -10.0418 -10.0083  -9.9734
    -9.8987  -9.8463  -9.7787  -9.3715  -9.2970  -9.2871  -9.2770  -9.2540
    -9.2496  -9.1932  -9.0245  -8.9008  -8.8871  -8.8705  -8.8702  -8.8574
    -8.8515  -8.8410  -8.8408  -8.8262  -8.8032  -8.8010  -8.7954  -8.7936
    -8.7809  -8.7794  -8.7779  -8.7202  -8.7146  -8.6398  -8.6297  -8.6238
    -8.4457  -8.4143  -8.1691  -8.1610  -8.1606  -8.0947  -8.0589  -7.8816
    -7.8256  -7.7919  -7.7774  -7.7738  -7.6898  -7.6772  -7.5225  -7.4724
    -7.4688  -7.4382  -7.4230  -7.4116  -7.4075  -7.3806  -7.3691  -7.3230
    -7.3049  -7.3003  -7.2832  -7.2503  -7.1848  -7.1674  -7.1541  -7.0051
    -7.0019  -6.9712  -6.9186  -6.7650  -6.6123  -6.4861  -6.2018  -6.1629
    -6.1448  -6.1325  -6.0728  -6.0350  -6.0323  -6.0287  -6.0182  -6.0179
    -6.0075  -5.9994  -5.9655  -5.9607  -5.8107  -5.7736  -5.7557  -5.6488
    -5.4836  -5.4177  -5.4104  -5.3969  -5.2688  -5.1839  -5.0376  -5.0205
    -4.7596  -4.7389  -4.7203  -4.7171  -4.6305  -4.6184  -4.5169  -4.4779
    -4.4753  -4.4694  -4.1695  -2.8670   0.1680   0.1893   0.7101   0.7362
     0.7406   0.7519   0.7767   0.7823   0.7960   0.8183   0.8218   0.8224
     0.8254   0.8404   0.8515   0.8887   0.9147   0.9200   0.9372   0.9605
     1.0272   1.1779   1.2585   1.2772   1.2805   1.3158   1.3283   1.3296
     1.3333   1.3403   1.3430   1.3692   1.3991   1.4398   1.4416   1.4424
     1.4493   1.4524   1.4781   1.8873   2.1083   2.1131   2.1140   2.1259
     2.1413   2.1526   2.1529   2.2119   2.3501

     highest occupied, lowest unoccupied level (ev):    -3.5479   -2.8670

!    total energy              =   -1940.48613326 Ry
     Harris-Foulkes estimate   =   -1940.48613326 Ry
     estimated scf accuracy    <          5.3E-13 Ry

     total all-electron energy =     -7770.310610 Ry

     The total energy is the sum of the following terms:

     one-electron contribution =  -10659.50655865 Ry
     hartree contribution      =    5415.63273146 Ry
     xc contribution           =    -430.86218186 Ry
     ewald contribution        =    4377.70015390 Ry
     DFT-D3 Dispersion         =      -0.27040296 Ry
     one-center paw contrib.   =    -643.17987516 Ry

     total magnetization       =     1.00 Bohr mag/cell
     absolute magnetization    =     1.20 Bohr mag/cell

     convergence has been achieved in  21 iterations

     negative rho (up, down):  4.867E-01 5.557E-03

     Forces acting on atoms (cartesian axes, Ry/au):

     atom    1 type  1   force =     0.00000264    0.00000488    0.00000000
     atom    2 type  1   force =    -0.00000530   -0.00000123    0.00000000
     atom    3 type  1   force =    -0.00000213   -0.00000974    0.00000000
     atom    4 type  1   force =    -0.00000051   -0.00000408    0.00000000
     atom    5 type  1   force =    -0.00000617    0.00000055    0.00000000
     atom    6 type  1   force =    -0.00000899   -0.00000385    0.00000000
     atom    7 type  1   force =     0.00000138   -0.00000257    0.00000000
     atom    8 type  1   force =     0.00000489    0.00000321    0.00000000
     atom    9 type  1   force =    -0.00000162    0.00000585    0.00000000
     atom   10 type  1   force =    -0.00001051   -0.00000374    0.00000000
     atom   11 type  1   force =    -0.00000341   -0.00000372    0.00000000
     atom   12 type  1   force =     0.00000049   -0.00000094    0.00000000
     atom   13 type  1   force =    -0.00000802    0.00000280    0.00000000
     atom   14 type  1   force =    -0.00000265    0.00000783    0.00000000
     atom   15 type  1   force =     0.00000066   -0.00000197    0.00000000
     atom   16 type  1   force =     0.00000588    0.00000787    0.00000000
     atom   17 type  1   force =    -0.00000766    0.00000680    0.00000000
     atom   18 type  1   force =    -0.00000760   -0.00000437    0.00000000
     atom   19 type  1   force =     0.00000880   -0.00000588    0.00000000
     atom   20 type  1   force =     0.00000089   -0.00000451    0.00000000
     atom   21 type  1   force =    -0.00000550    0.00000216    0.00000000
     atom   22 type  1   force =    -0.00000210    0.00000535    0.00000000
     atom   23 type  1   force =     0.00001539    0.00000272    0.00000000
     atom   24 type  1   force =     0.00000160    0.00001077    0.00000000
     atom   25 type  4   force =    -0.00000692   -0.00000095    0.00000000
     atom   26 type  1   force =    -0.00000313    0.00000792    0.00000000
     atom   27 type  1   force =    -0.00000043    0.00000599    0.00000000
     atom   28 type  1   force =     0.00000745    0.00000180    0.00000000
     atom   29 type  1   force =     0.00000378    0.00000293    0.00000000
     atom   30 type  1   force =     0.00001490   -0.00000586    0.00000000
     atom   31 type  1   force =     0.00001392   -0.00000697    0.00000000
     atom   32 type  1   force =    -0.00000840   -0.00000597    0.00000000
     atom   33 type  1   force =    -0.00000879    0.00000241    0.00000000
     atom   34 type  1   force =    -0.00000128    0.00001139    0.00000000
     atom   35 type  1   force =     0.00000728    0.00000539    0.00000000
     atom   36 type  1   force =     0.00000552   -0.00000336    0.00000000
     atom   37 type  1   force =     0.00000821   -0.00000364    0.00000000
     atom   38 type  1   force =     0.00001378   -0.00000700    0.00000000
     atom   39 type  1   force =     0.00000711   -0.00000959    0.00000000
     atom   40 type  1   force =     0.00000140   -0.00000666    0.00000000
     atom   41 type  1   force =     0.00000113   -0.00000121    0.00000000
     atom   42 type  1   force =     0.00000154    0.00000408    0.00000000
     atom   43 type  1   force =    -0.00000069   -0.00000076    0.00000000
     atom   44 type  1   force =     0.00000519   -0.00000192    0.00000000
     atom   45 type  1   force =    -0.00000158   -0.00000271    0.00000000
     atom   46 type  1   force =    -0.00000659    0.00000200    0.00000000
     atom   47 type  1   force =     0.00000016   -0.00000349    0.00000000
     atom   48 type  1   force =    -0.00000411   -0.00000914    0.00000000
     atom   49 type  1   force =    -0.00000499   -0.00000798    0.00000000
     atom   50 type  2   force =     0.00000613   -0.00000919    0.00000000
     atom   51 type  2   force =     0.00000914   -0.00000949    0.00000000
     atom   52 type  2   force =    -0.00000598   -0.00000141    0.00000000
     atom   53 type  2   force =    -0.00000895    0.00000865    0.00000000
     atom   54 type  2   force =     0.00000055    0.00000878    0.00000000
     atom   55 type  2   force =     0.00000260    0.00000959    0.00000000
     atom   56 type  2   force =     0.00000475   -0.00000359    0.00000000
     atom   57 type  2   force =     0.00000180   -0.00000604    0.00000000
     atom   58 type  2   force =     0.00000553   -0.00000316    0.00000000
     atom   59 type  2   force =    -0.00000334   -0.00000123    0.00000000
     atom   60 type  2   force =    -0.00001642    0.00000509    0.00000000
     atom   61 type  2   force =    -0.00000825    0.00000943    0.00000000
     atom   62 type  2   force =    -0.00000909    0.00000844    0.00000000
     atom   63 type  2   force =    -0.00000300   -0.00000551    0.00000000
     atom   64 type  2   force =    -0.00000174   -0.00001462    0.00000000
     atom   65 type  2   force =     0.00000542   -0.00000800    0.00000000
     atom   66 type  2   force =    -0.00000428   -0.00001019    0.00000000
     atom   67 type  3   force =    -0.00002420    0.00000243    0.00000000
     atom   68 type  2   force =    -0.00000965    0.00000721    0.00000000
     atom   69 type  2   force =    -0.00001289    0.00000380    0.00000000
     atom   70 type  2   force =    -0.00000926   -0.00000281    0.00000000
     atom   71 type  2   force =    -0.00001067   -0.00000925    0.00000000
     atom   72 type  2   force =     0.00000186   -0.00001141    0.00000000
     atom   73 type  2   force =     0.00000357   -0.00000738    0.00000000
     atom   74 type  2   force =    -0.00000920    0.00000821    0.00000000
     atom   75 type  5   force =    -0.00001040    0.00002358    0.00000000
     atom   76 type  2   force =    -0.00000878    0.00001009    0.00000000
     atom   77 type  2   force =    -0.00001280    0.00000459    0.00000000
     atom   78 type  2   force =    -0.00000709    0.00000217    0.00000000
     atom   79 type  2   force =     0.00000589   -0.00001152    0.00000000
     atom   80 type  2   force =     0.00001009   -0.00000705    0.00000000
     atom   81 type  2   force =     0.00000717   -0.00000152    0.00000000
     atom   82 type  2   force =     0.00000155    0.00000526    0.00000000
     atom   83 type  2   force =    -0.00000638    0.00000237    0.00000000
     atom   84 type  2   force =    -0.00000289    0.00000601    0.00000000
     atom   85 type  2   force =     0.00000431    0.00000326    0.00000000
     atom   86 type  2   force =     0.00000223   -0.00000254    0.00000000
     atom   87 type  2   force =     0.00001194   -0.00000117    0.00000000
     atom   88 type  2   force =     0.00001053    0.00000021    0.00000000
     atom   89 type  2   force =     0.00000950   -0.00000306    0.00000000
     atom   90 type  2   force =     0.00000399   -0.00000091    0.00000000
     atom   91 type  2   force =     0.00001035   -0.00000078    0.00000000
     atom   92 type  2   force =     0.00001402   -0.00000588    0.00000000
     atom   93 type  2   force =     0.00000139   -0.00000571    0.00000000
     atom   94 type  2   force =    -0.00000372    0.00000507    0.00000000
     atom   95 type  2   force =     0.00000411    0.00001131    0.00000000
     atom   96 type  2   force =     0.00001253    0.00000932    0.00000000
     atom   97 type  2   force =     0.00000927    0.00000629    0.00000000
     atom   98 type  2   force =     0.00001380    0.00000138    0.00000000

     Total force =     0.000100     Total SCF correction =     0.000001


     Computing stress (Cartesian axis) and pressure


     negative rho (up, down):  4.867E-01 5.557E-03
          total   stress  (Ry/bohr**3)                   (kbar)     P=   -0.16
   0.00000001  -0.00000001   0.00000000          0.00     -0.00      0.00
  -0.00000001  -0.00000000   0.00000000         -0.00     -0.00      0.00
   0.00000000   0.00000000  -0.00000337          0.00      0.00     -0.50


     BFGS Geometry Optimization

     number of scf cycles    =   1
     number of bfgs steps    =   0

     enthalpy new            =   -1940.4861332607 Ry

     new trust radius        =       0.0000257737 bohr
     new conv_thr            =            1.0E-12 Ry

     new unit-cell volume =  36184.39431 a.u.^3 (  5361.97396 Ang^3 )
     density =      0.36357 g/cm^3

CELL_PARAMETERS (alat= 33.23461096)
   1.000639556  -0.000348411   0.000000000
  -0.500621510   0.866405089   0.000000000
   0.000000000   0.000000000   1.137203616

ATOMIC_POSITIONS (crystal)
B        0.047430009   0.094849837   0.500000000
B        0.047738523   0.238015442   0.500000000
B        0.047639544   0.381022383   0.500000000
B        0.047233025   0.523749791   0.500000000
B        0.047516679   0.666616195   0.500000000
B        0.047792796   0.809614106   0.500000000
B        0.047660294   0.952339717   0.500000000
B        0.190093169   0.094556472   0.500000000
B        0.189804310   0.237112484   0.500000000
B        0.190907051   0.381118176   0.500000000
B        0.189705432   0.524061800   0.500000000
B        0.189613344   0.666929945   0.500000000
B        0.190308895   0.809691109   0.500000000
B        0.190385907   0.952207237   0.500000000
B        0.333340285   0.094563464   0.500000000
B        0.332902349   0.236246269   0.500000000
B        0.332537920   0.377795706   0.500000000
B        0.333085288   0.526682727   0.500000000
B        0.331740602   0.668259390   0.500000000
B        0.333070017   0.810386614   0.500000000
B        0.333383777   0.952483320   0.500000000
B        0.476362987   0.095248731   0.500000000
B        0.476346997   0.238099382   0.500000000
B        0.475651525   0.380705868   0.500000000
C2       0.476848935   0.523150927   0.500000000
B        0.473317223   0.666914712   0.500000000
B        0.475938156   0.810294588   0.500000000
B        0.476250246   0.952766979   0.500000000
B        0.619026847   0.095175417   0.500000000
B        0.619138054   0.238061134   0.500000000
B        0.619042425   0.380957565   0.500000000
B        0.619294084   0.524348455   0.500000000
B        0.622204256   0.667462040   0.500000000
B        0.618881805   0.809092925   0.500000000
B        0.618977585   0.952360417   0.500000000
B        0.761900693   0.095122050   0.500000000
B        0.761934701   0.238065355   0.500000000
B        0.761938899   0.380861999   0.500000000
B        0.761900634   0.523653063   0.500000000
B        0.763753789   0.667097674   0.500000000
B        0.762887592   0.810195662   0.500000000
B        0.761984583   0.952261423   0.500000000
B        0.904884978   0.095115005   0.500000000
B        0.904877940   0.238099322   0.500000000
B        0.904824602   0.380973191   0.500000000
B        0.904751298   0.523637062   0.500000000
B        0.905436504   0.666659666   0.500000000
B        0.905443499   0.809906800   0.500000000
B        0.905150146   0.952569950   0.500000000
N        0.095067693   0.047332604   0.500000000
N        0.094815837   0.189892443   0.500000000
N        0.095520549   0.333459526   0.500000000
N        0.094684509   0.476165715   0.500000000
N        0.094662639   0.618955225   0.500000000
N        0.095138764   0.761898170   0.500000000
N        0.095244897   0.904755172   0.500000000
N        0.238049696   0.047313330   0.500000000
N        0.237730004   0.189631196   0.500000000
N        0.237445324   0.332048864   0.500000000
N        0.237787870   0.476859629   0.500000000
N        0.236762726   0.619414226   0.500000000
N        0.237755603   0.762244490   0.500000000
N        0.238101940   0.904861332   0.500000000
N        0.381148888   0.047497853   0.500000000
N        0.381054878   0.189611500   0.500000000
N        0.380560536   0.331169982   0.500000000
C1       0.384515092   0.477369358   0.500000000
N        0.378716494   0.621283553   0.500000000
N        0.380585764   0.763237316   0.500000000
N        0.381044763   0.905337435   0.500000000
N        0.523943706   0.047834482   0.500000000
N        0.523952896   0.190556808   0.500000000
N        0.523842730   0.333634904   0.500000000
N        0.523337970   0.476662040   0.500000000
C3       0.522630690   0.615484972   0.500000000
N        0.523140375   0.762212114   0.500000000
N        0.523834247   0.905315509   0.500000000
N        0.666671990   0.047578422   0.500000000
N        0.666705825   0.190442702   0.500000000
N        0.666663095   0.333336851   0.500000000
N        0.666364989   0.476157188   0.500000000
N        0.668829860   0.619439381   0.500000000
N        0.667951009   0.762554624   0.500000000
N        0.666540429   0.904479419   0.500000000
N        0.809563931   0.047529273   0.500000000
N        0.809568417   0.190431554   0.500000000
N        0.809557284   0.333294160   0.500000000
N        0.809443143   0.476047039   0.500000000
N        0.810388460   0.618945080   0.500000000
N        0.810368810   0.762270025   0.500000000
N        0.810107559   0.905184183   0.500000000
N        0.952443511   0.047556572   0.500000000
N        0.952470737   0.190436067   0.500000000
N        0.952421589   0.333327990   0.500000000
N        0.952165537   0.476056243   0.500000000
N        0.952502204   0.618851133   0.500000000
N        0.952686814   0.761950413   0.500000000
N        0.952667524   0.904932392   0.500000000



     Writing output data file C2Cn.save/
     NEW-OLD atomic charge density approx. for the potential
     NEW k-points:
   0.0000000   0.0000000   0.0000000   1.0000000
   0.0000000   0.0000000   0.0000000   1.0000000

     Check: negative core charge=   -0.000006

     negative rho (up, down):  4.867E-01 2.766E-03
     extrapolated charge  391.00007, renormalised to  391.00000

     total cpu time spent up to now is      744.2 secs

     Self-consistent Calculation

     iteration #  1     ecut=    40.00 Ry     beta= 0.70
     CG style diagonalization
     ethr =  1.00E-06,  avg # of iterations =  2.0

     Threshold (ethr) on eigenvalues was too large:
     Diagonalizing with lowered threshold

     CG style diagonalization
     ethr =  7.34E-13,  avg # of iterations = 15.2

     negative rho (up, down):  4.867E-01 5.153E-03

     total cpu time spent up to now is      924.9 secs

     total energy              =   -1940.48613359 Ry
     Harris-Foulkes estimate   =   -1940.48427040 Ry
     estimated scf accuracy    <          6.9E-09 Ry

     total magnetization       =     1.00 Bohr mag/cell
     absolute magnetization    =     1.20 Bohr mag/cell

     iteration #  2     ecut=    40.00 Ry     beta= 0.70
     CG style diagonalization
     ethr =  1.76E-12,  avg # of iterations =  3.8

     negative rho (up, down):  4.867E-01 5.320E-03

     total cpu time spent up to now is      957.7 secs

     total energy              =   -1940.48613348 Ry
     Harris-Foulkes estimate   =   -1940.48613359 Ry
     estimated scf accuracy    <          4.2E-09 Ry

     total magnetization       =     1.00 Bohr mag/cell
     absolute magnetization    =     1.20 Bohr mag/cell

     iteration #  3     ecut=    40.00 Ry     beta= 0.70
     CG style diagonalization
     ethr =  1.07E-12,  avg # of iterations =  3.5

     negative rho (up, down):  4.867E-01 5.477E-03

     total cpu time spent up to now is      987.5 secs

     total energy              =   -1940.48613333 Ry
     Harris-Foulkes estimate   =   -1940.48613348 Ry
     estimated scf accuracy    <          2.8E-10 Ry

     total magnetization       =     1.00 Bohr mag/cell
     absolute magnetization    =     1.20 Bohr mag/cell

     iteration #  4     ecut=    40.00 Ry     beta= 0.70
     CG style diagonalization
     ethr =  1.00E-13,  avg # of iterations =  3.7

     negative rho (up, down):  4.867E-01 5.545E-03

     total cpu time spent up to now is     1019.5 secs

     total energy              =   -1940.48613328 Ry
     Harris-Foulkes estimate   =   -1940.48613333 Ry
     estimated scf accuracy    <          8.7E-11 Ry

     total magnetization       =     1.00 Bohr mag/cell
     absolute magnetization    =     1.20 Bohr mag/cell

     iteration #  5     ecut=    40.00 Ry     beta= 0.70
     CG style diagonalization
     ethr =  1.00E-13,  avg # of iterations =  3.1

     negative rho (up, down):  4.867E-01 5.551E-03

     total cpu time spent up to now is     1045.3 secs

     total energy              =   -1940.48613327 Ry
     Harris-Foulkes estimate   =   -1940.48613328 Ry
     estimated scf accuracy    <          6.3E-12 Ry

     total magnetization       =     1.00 Bohr mag/cell
     absolute magnetization    =     1.20 Bohr mag/cell

     iteration #  6     ecut=    40.00 Ry     beta= 0.70
     CG style diagonalization
     ethr =  1.00E-13,  avg # of iterations =  3.0

     negative rho (up, down):  4.867E-01 5.557E-03
 
     Magnetic moment per site:
     atom:    1    charge:    0.8506    magn:   -0.0000    constr:    0.0000
     atom:    2    charge:    0.8460    magn:    0.0003    constr:    0.0000
     atom:    3    charge:    0.8474    magn:    0.0007    constr:    0.0000
     atom:    4    charge:    0.8499    magn:   -0.0000    constr:    0.0000
     atom:    5    charge:    0.8524    magn:    0.0000    constr:    0.0000
     atom:    6    charge:    0.8504    magn:    0.0001    constr:    0.0000
     atom:    7    charge:    0.8511    magn:   -0.0000    constr:    0.0000
     atom:    8    charge:    0.8498    magn:    0.0001    constr:    0.0000
     atom:    9    charge:    0.8510    magn:   -0.0003    constr:    0.0000
     atom:   10    charge:    0.8407    magn:    0.0030    constr:    0.0000
     atom:   11    charge:    0.8473    magn:    0.0005    constr:    0.0000
     atom:   12    charge:    0.8537    magn:    0.0001    constr:    0.0000
     atom:   13    charge:    0.8529    magn:   -0.0000    constr:    0.0000
     atom:   14    charge:    0.8504    magn:    0.0001    constr:    0.0000
     atom:   15    charge:    0.8506    magn:   -0.0001    constr:    0.0000
     atom:   16    charge:    0.8542    magn:    0.0001    constr:    0.0000
     atom:   17    charge:    0.8610    magn:    0.0025    constr:    0.0000
     atom:   18    charge:    0.8515    magn:    0.0074    constr:    0.0000
     atom:   19    charge:    0.8613    magn:   -0.0003    constr:    0.0000
     atom:   20    charge:    0.8537    magn:    0.0001    constr:    0.0000
     atom:   21    charge:    0.8524    magn:    0.0000    constr:    0.0000
     atom:   22    charge:    0.8478    magn:    0.0000    constr:    0.0000
     atom:   23    charge:    0.8445    magn:    0.0003    constr:    0.0000
     atom:   24    charge:    0.8439    magn:   -0.0007    constr:    0.0000
     atom:   25    charge:    1.6282    magn:   -0.0264    constr:    0.0000
     atom:   26    charge:    0.8515    magn:    0.0074    constr:    0.0000
     atom:   27    charge:    0.8473    magn:    0.0005    constr:    0.0000
     atom:   28    charge:    0.8499    magn:   -0.0000    constr:    0.0000
     atom:   29    charge:    0.8472    magn:    0.0001    constr:    0.0000
     atom:   30    charge:    0.8485    magn:    0.0000    constr:    0.0000
     atom:   31    charge:    0.8486    magn:   -0.0003    constr:    0.0000
     atom:   32    charge:    0.8439    magn:   -0.0007    constr:    0.0000
     atom:   33    charge:    0.8610    magn:    0.0025    constr:    0.0000
     atom:   34    charge:    0.8407    magn:    0.0030    constr:    0.0000
     atom:   35    charge:    0.8474    magn:    0.0007    constr:    0.0000
     atom:   36    charge:    0.8467    magn:    0.0003    constr:    0.0000
     atom:   37    charge:    0.8466    magn:   -0.0000    constr:    0.0000
     atom:   38    charge:    0.8485    magn:    0.0000    constr:    0.0000
     atom:   39    charge:    0.8445    magn:    0.0003    constr:    0.0000
     atom:   40    charge:    0.8542    magn:    0.0001    constr:    0.0000
     atom:   41    charge:    0.8510    magn:   -0.0003    constr:    0.0000
     atom:   42    charge:    0.8460    magn:    0.0003    constr:    0.0000
     atom:   43    charge:    0.8460    magn:   -0.0000    constr:    0.0000
     atom:   44    charge:    0.8467    magn:    0.0003    constr:    0.0000
     atom:   45    charge:    0.8472    magn:    0.0001    constr:    0.0000
     atom:   46    charge:    0.8478    magn:    0.0000    constr:    0.0000
     atom:   47    charge:    0.8506    magn:   -0.0001    constr:    0.0000
     atom:   48    charge:    0.8498    magn:    0.0001    constr:    0.0000
     atom:   49    charge:    0.8506    magn:   -0.0000    constr:    0.0000
     atom:   50    charge:    2.7562    magn:    0.0005    constr:    0.0000
     atom:   51    charge:    2.7527    magn:   -0.0001    constr:    0.0000
     atom:   52    charge:    2.7468    magn:    0.0029    constr:    0.0000
     atom:   53    charge:    2.7548    magn:    0.0000    constr:    0.0000
     atom:   54    charge:    2.7553    magn:    0.0001    constr:    0.0000
     atom:   55    charge:    2.7523    magn:    0.0000    constr:    0.0000
     atom:   56    charge:    2.7513    magn:   -0.0000    constr:    0.0000
     atom:   57    charge:    2.7519    magn:    0.0003    constr:    0.0000
     atom:   58    charge:    2.7538    magn:    0.0039    constr:    0.0000
     atom:   59    charge:    2.7483    magn:    0.0065    constr:    0.0000
     atom:   60    charge:    2.7447    magn:    0.0123    constr:    0.0000
     atom:   61    charge:    2.7574    magn:    0.0012    constr:    0.0000
     atom:   62    charge:    2.7515    magn:   -0.0001    constr:    0.0000
     atom:   63    charge:    2.7523    magn:    0.0000    constr:    0.0000
     atom:   64    charge:    2.7575    magn:    0.0000    constr:    0.0000
     atom:   65    charge:    2.7570    magn:    0.0003    constr:    0.0000
     atom:   66    charge:    2.7565    magn:    0.0159    constr:    0.0000
     atom:   67    charge:    1.6559    magn:    0.1192    constr:    0.0000
     atom:   68    charge:    2.7631    magn:   -0.0023    constr:    0.0000
     atom:   69    charge:    2.7574    magn:    0.0012    constr:    0.0000
     atom:   70    charge:    2.7553    magn:    0.0001    constr:    0.0000
     atom:   71    charge:    2.7555    magn:    0.0000    constr:    0.0000
     atom:   72    charge:    2.7510    magn:    0.0002    constr:    0.0000
     atom:   73    charge:    2.7489    magn:    0.0013    constr:    0.0000
     atom:   74    charge:    2.7339    magn:   -0.0027    constr:    0.0000
     atom:   75    charge:    1.6558    magn:    0.1192    constr:    0.0000
     atom:   76    charge:    2.7447    magn:    0.0123    constr:    0.0000
     atom:   77    charge:    2.7548    magn:    0.0000    constr:    0.0000
     atom:   78    charge:    2.7536    magn:    0.0001    constr:    0.0000
     atom:   79    charge:    2.7515    magn:   -0.0000    constr:    0.0000
     atom:   80    charge:    2.7497    magn:   -0.0001    constr:    0.0000
     atom:   81    charge:    2.7489    magn:    0.0013    constr:    0.0000
     atom:   82    charge:    2.7565    magn:    0.0159    constr:    0.0000
     atom:   83    charge:    2.7483    magn:    0.0065    constr:    0.0000
     atom:   84    charge:    2.7468    magn:    0.0029    constr:    0.0000
     atom:   85    charge:    2.7511    magn:    0.0004    constr:    0.0000
     atom:   86    charge:    2.7521    magn:   -0.0001    constr:    0.0000
     atom:   87    charge:    2.7515    magn:   -0.0000    constr:    0.0000
     atom:   88    charge:    2.7510    magn:    0.0002    constr:    0.0000
     atom:   89    charge:    2.7570    magn:    0.0003    constr:    0.0000
     atom:   90    charge:    2.7538    magn:    0.0039    constr:    0.0000
     atom:   91    charge:    2.7527    magn:   -0.0001    constr:    0.0000
     atom:   92    charge:    2.7569    magn:   -0.0000    constr:    0.0000
     atom:   93    charge:    2.7511    magn:    0.0004    constr:    0.0000
     atom:   94    charge:    2.7536    magn:    0.0001    constr:    0.0000
     atom:   95    charge:    2.7555    magn:    0.0000    constr:    0.0000
     atom:   96    charge:    2.7575    magn:    0.0000    constr:    0.0000
     atom:   97    charge:    2.7519    magn:    0.0003    constr:    0.0000
     atom:   98    charge:    2.7562    magn:    0.0005    constr:    0.0000

     total cpu time spent up to now is     1069.6 secs

     End of self-consistent calculation

 ------ SPIN UP ------------


          k = 0.0000 0.0000 0.0000 ( 77329 PWs)   bands (ev):

   -21.7565 -21.5442 -21.3704 -21.3619 -21.3443 -21.2909 -21.2379 -20.8225
   -20.6291 -20.6122 -20.6108 -20.5280 -20.5156 -20.3924 -20.2726 -20.2649
   -20.2430 -20.1091 -20.0961 -19.5557 -19.3731 -19.3707 -19.3674 -19.3561
   -19.3543 -19.3459 -19.3458 -19.3136 -19.2963 -19.1428 -19.1357 -19.0017
   -18.9498 -18.9493 -18.9206 -18.7546 -18.7475 -18.5218 -18.5119 -18.5004
   -18.4884 -18.4277 -18.4105 -18.3580 -18.3343 -18.3312 -18.3168 -17.0427
   -15.0735 -13.0948 -12.7438 -12.7384 -12.7263 -12.6936 -12.6872 -12.6214
   -12.5445 -12.5121 -12.5073 -12.4568 -12.3943 -12.1317 -12.0462 -12.0331
   -12.0102 -11.9585 -11.9383 -11.5183 -11.4002 -11.3816 -11.3669 -11.3602
   -11.3484 -11.3391 -11.3366 -11.2944 -11.2818 -11.0997 -11.0277 -10.8506
   -10.6985 -10.6867 -10.6527 -10.6439 -10.4914 -10.0460 -10.0127  -9.9788
    -9.9089  -9.8609  -9.7945  -9.3743  -9.3049  -9.3025  -9.2812  -9.2584
    -9.2517  -9.1973  -9.0273  -8.9051  -8.8910  -8.8728  -8.8721  -8.8617
    -8.8593  -8.8555  -8.8437  -8.8279  -8.8056  -8.8048  -8.7984  -8.7976
    -8.7842  -8.7815  -8.7811  -8.7424  -8.7289  -8.6907  -8.6517  -8.6409
    -8.4575  -8.4458  -8.1704  -8.1630  -8.1623  -8.1136  -8.0670  -7.8962
    -7.8404  -7.8012  -7.7864  -7.7847  -7.7118  -7.7110  -7.5289  -7.4739
    -7.4719  -7.4403  -7.4244  -7.4133  -7.4125  -7.3819  -7.3710  -7.3254
    -7.3192  -7.3137  -7.2929  -7.2578  -7.2290  -7.2014  -7.1980  -7.0214
    -7.0038  -6.9721  -6.9361  -6.7924  -6.6335  -6.5134  -6.2137  -6.1660
    -6.1468  -6.1352  -6.0886  -6.0413  -6.0373  -6.0358  -6.0296  -6.0219
    -6.0161  -6.0150  -5.9915  -5.9744  -5.8752  -5.7932  -5.7928  -5.6760
    -5.4953  -5.4268  -5.4223  -5.4054  -5.3409  -5.2375  -5.0991  -5.0971
    -4.7737  -4.7482  -4.7328  -4.7268  -4.6675  -4.6316  -4.5220  -4.4864
    -4.4848  -4.4774  -4.3455  -3.5480   0.0809   0.1873   0.7096   0.7310
     0.7346   0.7408   0.7604   0.7652   0.7974   0.8178   0.8186   0.8219
     0.8255   0.8406   0.8487   0.8831   0.9038   0.9054   0.9327   0.9434
     0.9779   1.1630   1.2481   1.2492   1.2690   1.2772   1.3126   1.3288
     1.3310   1.3340   1.3439   1.3513   1.3901   1.4407   1.4425   1.4433
     1.4506   1.4530   1.4751   1.8863   2.1091   2.1133   2.1139   2.1307
     2.1345   2.1351   2.3295   2.3384   2.3441

 ------ SPIN DOWN ----------


          k = 0.0000 0.0000 0.0000 ( 77329 PWs)   bands (ev):

   -21.7512 -21.5407 -21.3682 -21.3605 -21.3434 -21.2831 -21.2303 -20.8197
   -20.6252 -20.6080 -20.6058 -20.5234 -20.5117 -20.3913 -20.2660 -20.2589
   -20.2396 -20.0969 -20.0863 -19.5489 -19.3695 -19.3691 -19.3652 -19.3542
   -19.3514 -19.3425 -19.3366 -19.3029 -19.2921 -19.1368 -19.1312 -18.9977
   -18.9459 -18.9444 -18.9163 -18.7446 -18.7384 -18.5153 -18.5084 -18.4951
   -18.4852 -18.4236 -18.4030 -18.3561 -18.3308 -18.3275 -18.3123 -16.8932
   -14.7838 -13.0532 -12.7420 -12.7344 -12.7240 -12.6905 -12.6854 -12.6174
   -12.5425 -12.5082 -12.5036 -12.4411 -12.3858 -12.1263 -12.0442 -12.0304
   -12.0054 -11.9468 -11.9301 -11.5084 -11.3942 -11.3775 -11.3652 -11.3588
   -11.3467 -11.3354 -11.3351 -11.2852 -11.2709 -11.0665 -11.0038 -10.8464
   -10.6967 -10.6848 -10.6428 -10.6388 -10.4784 -10.0418 -10.0083  -9.9734
    -9.8987  -9.8463  -9.7787  -9.3715  -9.2970  -9.2871  -9.2770  -9.2540
    -9.2496  -9.1932  -9.0245  -8.9008  -8.8871  -8.8705  -8.8702  -8.8573
[...]
     atom:   55    charge:    2.7523    magn:    0.0000    constr:    0.0000
     atom:   56    charge:    2.7513    magn:   -0.0000    constr:    0.0000
     atom:   57    charge:    2.7519    magn:    0.0003    constr:    0.0000
     atom:   58    charge:    2.7538    magn:    0.0039    constr:    0.0000
     atom:   59    charge:    2.7483    magn:    0.0065    constr:    0.0000
     atom:   60    charge:    2.7448    magn:    0.0123    constr:    0.0000
     atom:   61    charge:    2.7574    magn:    0.0012    constr:    0.0000
     atom:   62    charge:    2.7515    magn:   -0.0001    constr:    0.0000
     atom:   63    charge:    2.7523    magn:    0.0000    constr:    0.0000
     atom:   64    charge:    2.7575    magn:    0.0000    constr:    0.0000
     atom:   65    charge:    2.7570    magn:    0.0003    constr:    0.0000
     atom:   66    charge:    2.7565    magn:    0.0159    constr:    0.0000
     atom:   67    charge:    1.6559    magn:    0.1192    constr:    0.0000
     atom:   68    charge:    2.7631    magn:   -0.0023    constr:    0.0000
     atom:   69    charge:    2.7574    magn:    0.0012    constr:    0.0000
     atom:   70    charge:    2.7553    magn:    0.0001    constr:    0.0000
     atom:   71    charge:    2.7555    magn:    0.0000    constr:    0.0000
     atom:   72    charge:    2.7510    magn:    0.0002    constr:    0.0000
     atom:   73    charge:    2.7488    magn:    0.0013    constr:    0.0000
     atom:   74    charge:    2.7339    magn:   -0.0027    constr:    0.0000
     atom:   75    charge:    1.6558    magn:    0.1192    constr:    0.0000
     atom:   76    charge:    2.7447    magn:    0.0123    constr:    0.0000
     atom:   77    charge:    2.7548    magn:    0.0000    constr:    0.0000
     atom:   78    charge:    2.7536    magn:    0.0001    constr:    0.0000
     atom:   79    charge:    2.7515    magn:   -0.0000    constr:    0.0000
     atom:   80    charge:    2.7497    magn:   -0.0001    constr:    0.0000
     atom:   81    charge:    2.7488    magn:    0.0013    constr:    0.0000
     atom:   82    charge:    2.7565    magn:    0.0159    constr:    0.0000
     atom:   83    charge:    2.7483    magn:    0.0065    constr:    0.0000
     atom:   84    charge:    2.7468    magn:    0.0029    constr:    0.0000
     atom:   85    charge:    2.7511    magn:    0.0004    constr:    0.0000
     atom:   86    charge:    2.7521    magn:   -0.0001    constr:    0.0000
     atom:   87    charge:    2.7515    magn:   -0.0000    constr:    0.0000
     atom:   88    charge:    2.7510    magn:    0.0002    constr:    0.0000
     atom:   89    charge:    2.7570    magn:    0.0003    constr:    0.0000
     atom:   90    charge:    2.7538    magn:    0.0039    constr:    0.0000
     atom:   91    charge:    2.7527    magn:   -0.0001    constr:    0.0000
     atom:   92    charge:    2.7569    magn:   -0.0000    constr:    0.0000
     atom:   93    charge:    2.7511    magn:    0.0004    constr:    0.0000
     atom:   94    charge:    2.7536    magn:    0.0001    constr:    0.0000
     atom:   95    charge:    2.7555    magn:    0.0000    constr:    0.0000
     atom:   96    charge:    2.7575    magn:    0.0000    constr:    0.0000
     atom:   97    charge:    2.7519    magn:    0.0003    constr:    0.0000
     atom:   98    charge:    2.7562    magn:    0.0005    constr:    0.0000

     total cpu time spent up to now is     3496.1 secs

     End of self-consistent calculation

 ------ SPIN UP ------------


          k = 0.0000 0.0000 0.0000 ( 77329 PWs)   bands (ev):

   -21.7565 -21.5441 -21.3704 -21.3619 -21.3443 -21.2909 -21.2379 -20.8224
   -20.6291 -20.6122 -20.6108 -20.5280 -20.5156 -20.3924 -20.2725 -20.2649
   -20.2430 -20.1091 -20.0961 -19.5557 -19.3731 -19.3707 -19.3674 -19.3561
   -19.3543 -19.3459 -19.3458 -19.3136 -19.2963 -19.1428 -19.1357 -19.0017
   -18.9498 -18.9493 -18.9206 -18.7546 -18.7475 -18.5218 -18.5119 -18.5004
   -18.4884 -18.4277 -18.4105 -18.3581 -18.3343 -18.3312 -18.3168 -17.0427
   -15.0735 -13.0948 -12.7438 -12.7384 -12.7263 -12.6936 -12.6872 -12.6214
   -12.5445 -12.5121 -12.5073 -12.4568 -12.3943 -12.1317 -12.0462 -12.0331
   -12.0102 -11.9585 -11.9383 -11.5183 -11.4002 -11.3816 -11.3669 -11.3602
   -11.3484 -11.3391 -11.3366 -11.2944 -11.2818 -11.0997 -11.0277 -10.8506
   -10.6985 -10.6867 -10.6527 -10.6439 -10.4914 -10.0460 -10.0127  -9.9788
    -9.9089  -9.8609  -9.7945  -9.3743  -9.3049  -9.3025  -9.2812  -9.2584
    -9.2517  -9.1974  -9.0273  -8.9051  -8.8910  -8.8728  -8.8721  -8.8617
    -8.8593  -8.8555  -8.8437  -8.8279  -8.8056  -8.8048  -8.7984  -8.7976
    -8.7842  -8.7815  -8.7811  -8.7424  -8.7289  -8.6907  -8.6517  -8.6409
    -8.4575  -8.4458  -8.1704  -8.1630  -8.1623  -8.1136  -8.0670  -7.8962
    -7.8404  -7.8012  -7.7864  -7.7847  -7.7118  -7.7110  -7.5289  -7.4739
    -7.4719  -7.4403  -7.4244  -7.4133  -7.4125  -7.3819  -7.3710  -7.3254
    -7.3192  -7.3137  -7.2929  -7.2578  -7.2290  -7.2014  -7.1980  -7.0214
    -7.0038  -6.9721  -6.9361  -6.7924  -6.6335  -6.5134  -6.2137  -6.1660
    -6.1468  -6.1352  -6.0886  -6.0413  -6.0373  -6.0358  -6.0296  -6.0219
    -6.0161  -6.0150  -5.9915  -5.9744  -5.8752  -5.7932  -5.7928  -5.6760
    -5.4953  -5.4268  -5.4223  -5.4054  -5.3409  -5.2375  -5.0991  -5.0972
    -4.7737  -4.7482  -4.7328  -4.7268  -4.6675  -4.6316  -4.5221  -4.4864
    -4.4848  -4.4774  -4.3455  -3.5480   0.0808   0.1873   0.7096   0.7310
     0.7346   0.7408   0.7604   0.7652   0.7974   0.8178   0.8186   0.8219
     0.8255   0.8406   0.8487   0.8831   0.9038   0.9054   0.9327   0.9434
     0.9779   1.1630   1.2481   1.2492   1.2690   1.2772   1.3126   1.3288
     1.3310   1.3340   1.3439   1.3513   1.3901   1.4407   1.4425   1.4433
     1.4506   1.4530   1.4750   1.8864   2.1136   2.1180   2.1311   2.3215
     2.3330   2.3393   2.3405   2.3563   2.3788

 ------ SPIN DOWN ----------


          k = 0.0000 0.0000 0.0000 ( 77329 PWs)   bands (ev):

   -21.7512 -21.5407 -21.3682 -21.3605 -21.3434 -21.2831 -21.2303 -20.8197
   -20.6252 -20.6080 -20.6058 -20.5234 -20.5117 -20.3913 -20.2660 -20.2589
   -20.2396 -20.0969 -20.0863 -19.5489 -19.3695 -19.3691 -19.3652 -19.3542
   -19.3514 -19.3425 -19.3366 -19.3029 -19.2921 -19.1368 -19.1312 -18.9977
   -18.9459 -18.9444 -18.9163 -18.7446 -18.7384 -18.5153 -18.5084 -18.4951
   -18.4852 -18.4236 -18.4030 -18.3562 -18.3308 -18.3275 -18.3123 -16.8932
   -14.7838 -13.0532 -12.7419 -12.7344 -12.7240 -12.6905 -12.6854 -12.6174
   -12.5425 -12.5082 -12.5036 -12.4411 -12.3858 -12.1263 -12.0442 -12.0304
   -12.0054 -11.9468 -11.9301 -11.5084 -11.3942 -11.3775 -11.3652 -11.3588
   -11.3467 -11.3354 -11.3351 -11.2852 -11.2709 -11.0665 -11.0038 -10.8464
   -10.6967 -10.6848 -10.6428 -10.6388 -10.4784 -10.0418 -10.0083  -9.9734
    -9.8987  -9.8463  -9.7787  -9.3715  -9.2970  -9.2871  -9.2770  -9.2540
    -9.2496  -9.1932  -9.0245  -8.9008  -8.8871  -8.8705  -8.8702  -8.8573
    -8.8515  -8.8410  -8.8408  -8.8262  -8.8031  -8.8010  -8.7954  -8.7936
    -8.7809  -8.7794  -8.7779  -8.7202  -8.7146  -8.6397  -8.6297  -8.6238
    -8.4457  -8.4143  -8.1691  -8.1610  -8.1606  -8.0947  -8.0588  -7.8816
    -7.8256  -7.7919  -7.7774  -7.7738  -7.6898  -7.6772  -7.5225  -7.4724
    -7.4688  -7.4382  -7.4230  -7.4115  -7.4075  -7.3806  -7.3691  -7.3230
    -7.3049  -7.3003  -7.2832  -7.2503  -7.1848  -7.1674  -7.1541  -7.0051
    -7.0019  -6.9712  -6.9186  -6.7651  -6.6123  -6.4862  -6.2018  -6.1629
    -6.1449  -6.1324  -6.0728  -6.0350  -6.0323  -6.0287  -6.0183  -6.0179
    -6.0075  -5.9994  -5.9655  -5.9607  -5.8107  -5.7736  -5.7557  -5.6489
    -5.4836  -5.4176  -5.4103  -5.3968  -5.2688  -5.1839  -5.0377  -5.0206
    -4.7595  -4.7389  -4.7203  -4.7171  -4.6305  -4.6184  -4.5169  -4.4778
    -4.4753  -4.4693  -4.1695  -2.8671   0.1679   0.1893   0.7101   0.7362
     0.7406   0.7519   0.7767   0.7823   0.7960   0.8183   0.8218   0.8225
     0.8254   0.8405   0.8515   0.8887   0.9146   0.9200   0.9372   0.9606
     1.0271   1.1779   1.2585   1.2772   1.2804   1.3158   1.3283   1.3296
     1.3333   1.3403   1.3430   1.3693   1.3991   1.4398   1.4416   1.4423
     1.4494   1.4524   1.4781   1.8872   2.1155   2.1528   2.3254   2.3415
     2.3433   2.3516   2.3599   2.3626   2.4321

     highest occupied, lowest unoccupied level (ev):    -3.5480   -2.8671

!    total energy              =   -1940.48613327 Ry
     Harris-Foulkes estimate   =   -1940.48613326 Ry
     estimated scf accuracy    <          5.6E-15 Ry

     total all-electron energy =     -7770.310610 Ry

     The total energy is the sum of the following terms:

     one-electron contribution =  -10659.50257983 Ry
     hartree contribution      =    5415.63073022 Ry
     xc contribution           =    -430.86214115 Ry
     ewald contribution        =    4377.69813455 Ry
     DFT-D3 Dispersion         =      -0.27040287 Ry
     one-center paw contrib.   =    -643.17987418 Ry

     total magnetization       =     1.00 Bohr mag/cell
     absolute magnetization    =     1.20 Bohr mag/cell

     convergence has been achieved in  27 iterations

     negative rho (up, down):  4.867E-01 5.559E-03

     Forces acting on atoms (cartesian axes, Ry/au):

     atom    1 type  1   force =     0.00001319   -0.00000913    0.00000000
     atom    2 type  1   force =     0.00000689   -0.00000523    0.00000000
     atom    3 type  1   force =    -0.00000290    0.00000936    0.00000000
     atom    4 type  1   force =    -0.00000034    0.00001601    0.00000000
     atom    5 type  1   force =     0.00000934    0.00001122    0.00000000
     atom    6 type  1   force =     0.00000894    0.00000478    0.00000000
     atom    7 type  1   force =     0.00001054   -0.00000257    0.00000000
     atom    8 type  1   force =     0.00000445   -0.00000727    0.00000000
     atom    9 type  1   force =     0.00000613   -0.00000637    0.00000000
     atom   10 type  1   force =    -0.00000518    0.00000138    0.00000000
     atom   11 type  1   force =    -0.00001259    0.00001279    0.00000000
     atom   12 type  1   force =    -0.00000689    0.00001240    0.00000000
     atom   13 type  1   force =    -0.00000040    0.00000314    0.00000000
     atom   14 type  1   force =     0.00000288   -0.00000576    0.00000000
     atom   15 type  1   force =     0.00000154   -0.00001058    0.00000000
     atom   16 type  1   force =     0.00000403   -0.00000970    0.00000000
     atom   17 type  1   force =    -0.00000410   -0.00000260    0.00000000
     atom   18 type  1   force =    -0.00001483    0.00000752    0.00000000
     atom   19 type  1   force =    -0.00001682    0.00001085    0.00000000
     atom   20 type  1   force =    -0.00001343    0.00000360    0.00000000
     atom   21 type  1   force =    -0.00000438   -0.00000988    0.00000000
     atom   22 type  1   force =    -0.00000691   -0.00001310    0.00000000
     atom   23 type  1   force =     0.00000081   -0.00001000    0.00000000
     atom   24 type  1   force =    -0.00000215   -0.00000479    0.00000000
     atom   25 type  4   force =    -0.00001396    0.00001130    0.00000000
     atom   26 type  1   force =    -0.00001313    0.00001025    0.00000000
     atom   27 type  1   force =    -0.00001682    0.00000482    0.00000000
     atom   28 type  1   force =    -0.00001661   -0.00000606    0.00000000
     atom   29 type  1   force =    -0.00000998   -0.00000977    0.00000000
     atom   30 type  1   force =     0.00000112   -0.00001049    0.00000000
     atom   31 type  1   force =     0.00000482   -0.00000509    0.00000000
     atom   32 type  1   force =     0.00000172    0.00000313    0.00000000
     atom   33 type  1   force =    -0.00000136    0.00000548    0.00000000
     atom   34 type  1   force =    -0.00000574    0.00000386    0.00000000
     atom   35 type  1   force =    -0.00001093   -0.00000162    0.00000000
     atom   36 type  1   force =    -0.00000031   -0.00000364    0.00000000
     atom   37 type  1   force =     0.00000336   -0.00000346    0.00000000
     atom   38 type  1   force =     0.00000841    0.00000012    0.00000000
     atom   39 type  1   force =     0.00000736    0.00000043    0.00000000
     atom   40 type  1   force =     0.00000619   -0.00000001    0.00000000
     atom   41 type  1   force =     0.00000385   -0.00000149    0.00000000
     atom   42 type  1   force =     0.00000521   -0.00000176    0.00000000
     atom   43 type  1   force =     0.00001191   -0.00000601    0.00000000
     atom   44 type  1   force =     0.00000361    0.00000096    0.00000000
     atom   45 type  1   force =     0.00000415    0.00001035    0.00000000
     atom   46 type  1   force =     0.00000883    0.00000968    0.00000000
     atom   47 type  1   force =     0.00001034    0.00000560    0.00000000
     atom   48 type  1   force =     0.00000945    0.00000303    0.00000000
     atom   49 type  1   force =     0.00001500   -0.00000301    0.00000000
     atom   50 type  2   force =    -0.00000168    0.00000521    0.00000000
     atom   51 type  2   force =    -0.00000392    0.00000641    0.00000000
     atom   52 type  2   force =    -0.00000330   -0.00000474    0.00000000
     atom   53 type  2   force =    -0.00000017   -0.00001085    0.00000000
     atom   54 type  2   force =    -0.00000352   -0.00000625    0.00000000
     atom   55 type  2   force =    -0.00000924   -0.00000317    0.00000000
     atom   56 type  2   force =    -0.00000486   -0.00000020    0.00000000
     atom   57 type  2   force =     0.00000042    0.00000814    0.00000000
     atom   58 type  2   force =     0.00000127    0.00001028    0.00000000
     atom   59 type  2   force =    -0.00000486    0.00000550    0.00000000
     atom   60 type  2   force =    -0.00000190   -0.00000515    0.00000000
     atom   61 type  2   force =     0.00000653   -0.00000724    0.00000000
     atom   62 type  2   force =    -0.00000067   -0.00000228    0.00000000
     atom   63 type  2   force =    -0.00000447    0.00000513    0.00000000
     atom   64 type  2   force =     0.00000162    0.00000874    0.00000000
     atom   65 type  2   force =     0.00000638    0.00000971    0.00000000
     atom   66 type  2   force =     0.00000132    0.00001307    0.00000000
     atom   67 type  3   force =    -0.00000032    0.00000277    0.00000000
     atom   68 type  2   force =     0.00000867   -0.00000635    0.00000000
     atom   69 type  2   force =     0.00000974   -0.00000404    0.00000000
     atom   70 type  2   force =     0.00000529    0.00000275    0.00000000
     atom   71 type  2   force =     0.00000808    0.00000810    0.00000000
     atom   72 type  2   force =     0.00000978    0.00000726    0.00000000
     atom   73 type  2   force =     0.00000462    0.00000756    0.00000000
     atom   74 type  2   force =    -0.00000481    0.00000246    0.00000000
     atom   75 type  5   force =    -0.00000329   -0.00000478    0.00000000
     atom   76 type  2   force =     0.00000330    0.00000439    0.00000000
     atom   77 type  2   force =     0.00001141    0.00000467    0.00000000
     atom   78 type  2   force =     0.00000826    0.00000311    0.00000000
     atom   79 type  2   force =     0.00000896    0.00000216    0.00000000
     atom   80 type  2   force =     0.00000814   -0.00000229    0.00000000
     atom   81 type  2   force =    -0.00000154   -0.00000425    0.00000000
     atom   82 type  2   force =    -0.00000553   -0.00000545    0.00000000
     atom   83 type  2   force =    -0.00000255    0.00000235    0.00000000
     atom   84 type  2   force =     0.00000446    0.00000542    0.00000000
     atom   85 type  2   force =     0.00000101   -0.00000036    0.00000000
     atom   86 type  2   force =     0.00000527   -0.00000250    0.00000000
     atom   87 type  2   force =     0.00000302   -0.00000613    0.00000000
     atom   88 type  2   force =    -0.00000081   -0.00000792    0.00000000
     atom   89 type  2   force =    -0.00000344   -0.00000860    0.00000000
     atom   90 type  2   force =    -0.00000619   -0.00000747    0.00000000
     atom   91 type  2   force =    -0.00000569   -0.00000204    0.00000000
     atom   92 type  2   force =    -0.00000637    0.00000093    0.00000000
     atom   93 type  2   force =    -0.00000094   -0.00000095    0.00000000
     atom   94 type  2   force =     0.00000003   -0.00000722    0.00000000
     atom   95 type  2   force =    -0.00000528   -0.00000797    0.00000000
     atom   96 type  2   force =    -0.00000876   -0.00000602    0.00000000
     atom   97 type  2   force =    -0.00000957   -0.00000852    0.00000000
     atom   98 type  2   force =    -0.00000825   -0.00000605    0.00000000

     Total force =     0.000099     Total SCF correction =     0.000000


     Computing stress (Cartesian axis) and pressure


     negative rho (up, down):  4.867E-01 5.559E-03
          total   stress  (Ry/bohr**3)                   (kbar)     P=   -0.16
   0.00000000  -0.00000000   0.00000000          0.00     -0.00      0.00
  -0.00000000  -0.00000000   0.00000000         -0.00     -0.00      0.00
   0.00000000   0.00000000  -0.00000337          0.00      0.00     -0.50


     Writing output data file C2Cn.save/
 
     init_run     :      9.37s CPU      9.75s WALL (       2 calls)
     electrons    :   3002.35s CPU   3379.27s WALL (       5 calls)
     update_pot   :     10.12s CPU     10.18s WALL (       3 calls)
     forces       :     18.89s CPU     19.52s WALL (       5 calls)
     stress       :     59.18s CPU     59.70s WALL (       5 calls)

     Called by init_run:
     wfcinit      :      3.55s CPU      3.76s WALL (       2 calls)
     potinit      :      2.05s CPU      2.09s WALL (       2 calls)
     hinit0       :      2.81s CPU      2.86s WALL (       2 calls)

     Called by electrons:
     c_bands      :   2910.35s CPU   3282.24s WALL (      82 calls)
     sum_band     :     47.07s CPU     48.92s WALL (      82 calls)
     v_of_rho     :     15.81s CPU     16.37s WALL (      84 calls)
     newd         :      5.88s CPU      6.83s WALL (      84 calls)
     PAW_pot      :     17.47s CPU     17.70s WALL (      87 calls)
     mix_rho      :      1.43s CPU      1.63s WALL (      82 calls)

     Called by c_bands:
     init_us_2    :      2.94s CPU      3.03s WALL (     358 calls)
     rcgdiagg     :   2819.35s CPU   2844.82s WALL (     178 calls)
     wfcrot       :     91.65s CPU     93.73s WALL (     166 calls)

     Called by sum_band:
     sum_band:bec :      0.11s CPU      0.11s WALL (     170 calls)
     addusdens    :      5.46s CPU      6.62s WALL (      82 calls)

     Called by *cgdiagg:
     h_psi        :   1446.19s CPU   1459.47s WALL (  126250 calls)
     s_psi        :    791.78s CPU    799.20s WALL (  252334 calls)
     rdiaghg      :      3.05s CPU      3.15s WALL (     166 calls)

     Called by h_psi:
     h_psi:pot    :   1444.56s CPU   1457.83s WALL (  126250 calls)
     h_psi:calbec :    508.32s CPU    512.54s WALL (  126250 calls)
     vloc_psi     :    515.23s CPU    521.48s WALL (  126250 calls)
     add_vuspsi   :    419.28s CPU    422.51s WALL (  126250 calls)
     hs_1psi      :   1770.66s CPU   1786.12s WALL (  126084 calls)
     s_1psi       :    828.55s CPU    835.82s WALL (  126084 calls)

     General routines
     calbec       :    951.04s CPU    959.99s WALL (  252554 calls)
     fft          :     12.82s CPU     13.06s WALL (    1592 calls)
     ffts         :      0.63s CPU      0.65s WALL (     164 calls)
     fftw         :    488.06s CPU    493.94s WALL (  313760 calls)
 
     Parallel routines
     fft_scatt_xy :     45.93s CPU     46.36s WALL (  315516 calls)
     fft_scatt_yz :    144.41s CPU    146.70s WALL (  315516 calls)
 
     PWSCF        :  51m45.25s CPU  58m34.07s WALL

 
   This run was terminated on:  10:52:37   9Jun2021            

=------------------------------------------------------------------------------=
   JOB DONE.
=------------------------------------------------------------------------------=
