
     Program PWSCF v.6.4.1 starts on  1Jul2021 at 14:52:34 

     This program is part of the open-source Quantum ESPRESSO suite
     for quantum simulation of materials; please cite
         "P. Giannozzi et al., J. Phys.:Condens. Matter 21 395502 (2009);
         "P. Giannozzi et al., J. Phys.:Condens. Matter 29 465901 (2017);
          URL http://www.quantum-espresso.org", 
     in publications or presentations arising from this work. More details at
     http://www.quantum-espresso.org/quote

     Parallel version (MPI), running on    64 processors

     MPI processes distributed on     2 nodes
     R & G space division:  proc/nbgrp/npool/nimage =      64
     Waiting for input...
     Reading input from standard input

     Current dimensions of program PWSCF are:
     Max number of different atomic species (ntypx) = 10
     Max number of k-points (npk) =  40000
     Max angular momentum in pseudopotentials (lmaxx) =  3
               file N.pbe-n-kjpaw_psl.1.0.0.UPF: wavefunction(s)  2S renormalized
               file C.pbe-n-kjpaw_psl.1.0.0.UPF: wavefunction(s)  2S 2P renormalized
               file C.pbe-n-kjpaw_psl.1.0.0.UPF: wavefunction(s)  2S 2P renormalized
               file C.pbe-n-kjpaw_psl.1.0.0.UPF: wavefunction(s)  2S 2P renormalized

     --------------------------------------------
     Parameters for DFT-D3 Dispersion Correction:
     --------------------------------------------
       Reference C6 values for interpolation: 

         atom   Coordination number   C6
         B          0.000           214.36
         B          0.971           150.74
         B          1.944           106.23
         B          2.913            62.89
         B          4.586            56.06
         C1         0.000            98.23
         C1         0.987            86.49
         C1         1.998            58.72
         C1         2.999            51.56
         C1         3.984            36.41
         C2         0.000            98.23
         C2         0.987            86.49
         C2         1.998            58.72
         C2         2.999            51.56
         C2         3.984            36.41
         C3         0.000            98.23
         C3         0.987            86.49
         C3         1.998            58.72
         C3         2.999            51.56
         C3         3.984            36.41
         N          0.000            50.54
         N          0.994            44.25
         N          2.014            39.35
         N          2.990            31.16

       Values used:

         atom   Coordination number  R0_AB[au]  C6      C8
         B          3.326            3.039     62.90   2506.23
         B          3.318            3.039     62.90   2506.42
         B          3.320            3.039     62.90   2506.37
         B          3.323            3.039     62.90   2506.30
         B          3.326            3.039     62.90   2506.23
         B          3.325            3.039     62.90   2506.26
         B          3.327            3.039     62.90   2506.20
         B          3.325            3.039     62.90   2506.24
         B          3.321            3.039     62.90   2506.35
         B          3.311            3.039     62.91   2506.58
         B          3.319            3.039     62.90   2506.40
         B          3.324            3.039     62.90   2506.27
         B          3.324            3.039     62.90   2506.28
         B          3.325            3.039     62.90   2506.26
         B          3.325            3.039     62.90   2506.25
         B          3.329            3.039     62.90   2506.16
         B          3.304            3.039     62.91   2506.74
         B          3.293            3.039     62.92   2506.99
         B          3.318            3.039     62.90   2506.41
         B          3.324            3.039     62.90   2506.27
         B          3.326            3.039     62.90   2506.23
         B          3.322            3.039     62.90   2506.31
         B          3.319            3.039     62.90   2506.38
         B          3.306            3.039     62.91   2506.70
         C2         3.251            2.750     49.40   1428.66
         B          3.293            3.039     62.92   2506.99
         B          3.319            3.039     62.90   2506.40
         B          3.323            3.039     62.90   2506.30
         B          3.321            3.039     62.90   2506.36
         B          3.317            3.039     62.90   2506.44
         B          3.304            3.039     62.91   2506.73
         B          3.306            3.039     62.91   2506.70
         B          3.304            3.039     62.91   2506.74
         B          3.311            3.039     62.91   2506.58
         B          3.320            3.039     62.90   2506.37
         B          3.318            3.039     62.90   2506.43
         B          3.318            3.039     62.90   2506.42
         B          3.317            3.039     62.90   2506.44
         B          3.319            3.039     62.90   2506.38
         B          3.329            3.039     62.90   2506.16
         B          3.321            3.039     62.90   2506.35
         B          3.318            3.039     62.90   2506.42
         B          3.320            3.039     62.90   2506.38
         B          3.318            3.039     62.90   2506.43
         B          3.321            3.039     62.90   2506.36
         B          3.322            3.039     62.90   2506.31
         B          3.325            3.039     62.90   2506.25
         B          3.325            3.039     62.90   2506.24
         B          3.326            3.039     62.90   2506.23
         N          3.130            2.478     31.22    688.74
         N          3.129            2.478     31.22    688.75
         N          3.126            2.478     31.22    688.77
         N          3.128            2.478     31.22    688.75
         N          3.129            2.478     31.22    688.74
         N          3.129            2.478     31.22    688.75
         N          3.129            2.478     31.22    688.74
         N          3.129            2.478     31.22    688.75
         N          3.129            2.478     31.22    688.74
         N          3.126            2.478     31.22    688.77
         N          3.125            2.478     31.22    688.79
         N          3.129            2.478     31.22    688.75
         N          3.129            2.478     31.22    688.75
         N          3.129            2.478     31.22    688.75
         N          3.130            2.478     31.22    688.74
         N          3.130            2.478     31.22    688.73
         N          3.133            2.478     31.22    688.70
         C1         3.189            2.750     50.18   1451.16
         N          3.129            2.478     31.22    688.74
         N          3.129            2.478     31.22    688.75
         N          3.129            2.478     31.22    688.74
         N          3.129            2.478     31.22    688.75
         N          3.127            2.478     31.22    688.77
         N          3.123            2.478     31.22    688.80
         N          3.151            2.478     31.21    688.55
         C3         3.189            2.750     50.18   1451.16
         N          3.125            2.478     31.22    688.79
         N          3.128            2.478     31.22    688.75
         N          3.127            2.478     31.22    688.76
         N          3.127            2.478     31.22    688.77
         N          3.125            2.478     31.22    688.78
         N          3.123            2.478     31.22    688.80
         N          3.133            2.478     31.22    688.70
         N          3.126            2.478     31.22    688.77
         N          3.126            2.478     31.22    688.77
         N          3.127            2.478     31.22    688.77
         N          3.127            2.478     31.22    688.77
         N          3.127            2.478     31.22    688.77
         N          3.127            2.478     31.22    688.77
         N          3.130            2.478     31.22    688.73
         N          3.129            2.478     31.22    688.74
         N          3.129            2.478     31.22    688.75
         N          3.129            2.478     31.22    688.74
         N          3.127            2.478     31.22    688.77
         N          3.127            2.478     31.22    688.76
         N          3.129            2.478     31.22    688.75
         N          3.130            2.478     31.22    688.74
         N          3.129            2.478     31.22    688.75
         N          3.130            2.478     31.22    688.74

         Molecular C6 ( Ry / a.u.^6 ) =    437703.63


     gamma-point specific algorithms are used

     Subspace diagonalization in iterative solution of the eigenvalue problem:
     one sub-group per band group will be used
     scalapack distributed-memory algorithm (size of sub-group:  5*  5 procs)

     Message from routine setup:
     DEPRECATED: symmetry with ibrav=0, use correct ibrav instead
 
     Parallelization info
     --------------------
     sticks:   dense  smooth     PW     G-vecs:    dense   smooth      PW
     Min         189     189     46                19310    19310    2402
     Max         192     192     48                19330    19330    2424
     Sum       12165   12165   3049              1236729  1236729  154709
 


     bravais-lattice index     =            0
     lattice parameter (alat)  =      33.2346  a.u.
     unit-cell volume          =   36189.3113 (a.u.)^3
     number of atoms/cell      =           98
     number of atomic types    =            5
     number of electrons       =       391.00
     number of Kohn-Sham states=          245
     kinetic-energy cutoff     =      40.0000  Ry
     charge density cutoff     =     160.0000  Ry
     convergence threshold     =      1.0E-08
     mixing beta               =       0.7000
     number of iterations used =            8  plain     mixing
     Exchange-correlation      = SLA PW PBX PBC ( 1  4  3  4 0 0)
     Using LIBXC version       =    4   3   4
     nstep                     =           50


     celldm(1)=  33.234611  celldm(2)=   0.000000  celldm(3)=   0.000000
     celldm(4)=   0.000000  celldm(5)=   0.000000  celldm(6)=   0.000000

     crystal axes: (cart. coord. in units of alat)
               a(1) = (   1.000260   0.000427   0.000000 )  
               a(2) = (  -0.499760   0.866464   0.000000 )  
               a(3) = (   0.000000   0.000000   1.137204 )  

     reciprocal axes: (cart. coord. in units 2 pi/alat)
               b(1) = (  0.999494  0.576490  0.000000 )  
               b(2) = ( -0.000492  1.153832  0.000000 )  
               b(3) = (  0.000000  0.000000  0.879350 )  


     PseudoPot. # 1 for B  read from file:
     ./pseudo/B.pbe-n-kjpaw_psl.1.0.0.UPF
     MD5 check sum: 8c825a5969375aca5c2c6ad5945b3059
     Pseudo is Projector augmented-wave + core cor, Zval =  3.0
     Generated using "atomic" code by A. Dal Corso v.6.3
     Shape of augmentation charge: PSQ
     Using radial grid of 1059 points,  4 beta functions with: 
                l(1) =   0
                l(2) =   0
                l(3) =   1
                l(4) =   1
     Q(r) pseudized with 0 coefficients 


     PseudoPot. # 2 for N  read from file:
     ./pseudo/N.pbe-n-kjpaw_psl.1.0.0.UPF
     MD5 check sum: 14c48229446f9f2d411169a3abcbc3fa
     Pseudo is Projector augmented-wave + core cor, Zval =  5.0
     Generated using "atomic" code by A. Dal Corso v.6.3
     Shape of augmentation charge: PSQ
     Using radial grid of 1085 points,  4 beta functions with: 
                l(1) =   0
                l(2) =   0
                l(3) =   1
                l(4) =   1
     Q(r) pseudized with 0 coefficients 


     PseudoPot. # 3 for C  read from file:
     ./pseudo/C.pbe-n-kjpaw_psl.1.0.0.UPF
     MD5 check sum: 5f16ad9a65e90284d1d834d4ab3b0f7d
     Pseudo is Projector augmented-wave + core cor, Zval =  4.0
     Generated using "atomic" code by A. Dal Corso v.6.3
     Shape of augmentation charge: PSQ
     Using radial grid of 1073 points,  4 beta functions with: 
                l(1) =   0
                l(2) =   0
                l(3) =   1
                l(4) =   1
     Q(r) pseudized with 0 coefficients 


     PseudoPot. # 4 for C  read from file:
     ./pseudo/C.pbe-n-kjpaw_psl.1.0.0.UPF
     MD5 check sum: 5f16ad9a65e90284d1d834d4ab3b0f7d
     Pseudo is Projector augmented-wave + core cor, Zval =  4.0
     Generated using "atomic" code by A. Dal Corso v.6.3
     Shape of augmentation charge: PSQ
     Using radial grid of 1073 points,  4 beta functions with: 
                l(1) =   0
                l(2) =   0
                l(3) =   1
                l(4) =   1
     Q(r) pseudized with 0 coefficients 


     PseudoPot. # 5 for C  read from file:
     ./pseudo/C.pbe-n-kjpaw_psl.1.0.0.UPF
     MD5 check sum: 5f16ad9a65e90284d1d834d4ab3b0f7d
     Pseudo is Projector augmented-wave + core cor, Zval =  4.0
     Generated using "atomic" code by A. Dal Corso v.6.3
     Shape of augmentation charge: PSQ
     Using radial grid of 1073 points,  4 beta functions with: 
                l(1) =   0
                l(2) =   0
                l(3) =   1
                l(4) =   1
     Q(r) pseudized with 0 coefficients 


     atomic species   valence    mass     pseudopotential
        B              3.00    10.00000     B ( 1.00)
        N              5.00    14.00000     N ( 1.00)
        C1             4.00    12.00000     C ( 1.00)
        C2             4.00    12.00000     C ( 1.00)
        C3             4.00    12.00000     C ( 1.00)

     Starting magnetic structure 
     atomic species   magnetization
        B            0.000
        N            0.000
        C1           1.000
        C2           0.000
        C3           0.000

      2 Sym. Ops. (no inversion) found



   Cartesian axes

     site n.     atom                  positions (alat units)
         1           B   tau(   1) = (  -0.0000711   0.0822169   0.5686018  )
         2           B   tau(   2) = (  -0.0714100   0.2062325   0.5686018  )
         3           B   tau(   3) = (  -0.1428890   0.3300787   0.5686018  )
         4           B   tau(   4) = (  -0.2144436   0.4537939   0.5686018  )
         5           B   tau(   5) = (  -0.2854629   0.5776526   0.5686018  )
         6           B   tau(   6) = (  -0.3567611   0.7015651   0.5686018  )
         7           B   tau(   7) = (  -0.4282940   0.8252028   0.5686018  )
         8           B   tau(   8) = (   0.1427740   0.0818933   0.5686018  )
         9           B   tau(   9) = (   0.0711753   0.2053913   0.5686018  )
        10           B   tau(  10) = (   0.0001281   0.3302852   0.5686018  )
        11           B   tau(  11) = (  -0.0717861   0.4536898   0.5686018  )
        12           B   tau(  12) = (  -0.1433440   0.5778064   0.5686018  )
        13           B   tau(  13) = (  -0.2142232   0.7016090   0.5686018  )
        14           B   tau(  14) = (  -0.2854541   0.8250724   0.5686018  )
        15           B   tau(  15) = (   0.2861379   0.0818439   0.5686018  )
        16           B   tau(  16) = (   0.2147336   0.2046007   0.5686018  )
        17           B   tau(  17) = (   0.1434045   0.3278947   0.5686018  )
        18           B   tau(  18) = (   0.0709293   0.4548090   0.5686018  )
        19           B   tau(  19) = (  -0.0015034   0.5787953   0.5686018  )
        20           B   tau(  20) = (  -0.0715673   0.7021270   0.5686018  )
        21           B   tau(  21) = (  -0.1424936   0.8252825   0.5686018  )
        22           B   tau(  22) = (   0.4288341   0.0826924   0.5686018  )
        23           B   tau(  23) = (   0.3572861   0.2062842   0.5686018  )
        24           B   tau(  24) = (   0.2845876   0.3289355   0.5686018  )
        25           C2  tau(  25) = (   0.2152086   0.4536782   0.5686018  )
        26           B   tau(  26) = (   0.1420886   0.5780599   0.5686018  )
        27           B   tau(  27) = (   0.0716999   0.7022144   0.5686018  )
        28           B   tau(  28) = (   0.0002808   0.8257074   0.5686018  )
        29           B   tau(  29) = (   0.5715435   0.0828051   0.5686018  )
        30           B   tau(  30) = (   0.5001512   0.2065660   0.5686018  )
        31           B   tau(  31) = (   0.4285387   0.3305104   0.5686018  )
        32           B   tau(  32) = (   0.3579268   0.4559634   0.5686018  )
        33           B   tau(  33) = (   0.2882367   0.5787514   0.5686018  )
        34           B   tau(  34) = (   0.2145284   0.7016369   0.5686018  )
        35           B   tau(  35) = (   0.1431986   0.8255968   0.5686018  )
        36           B   tau(  36) = (   0.7144334   0.0828632   0.5686018  )
        37           B   tau(  37) = (   0.6430168   0.2066812   0.5686018  )
        38           B   tau(  38) = (   0.5716838   0.3304642   0.5686018  )
        39           B   tau(  39) = (   0.5004952   0.4543299   0.5686018  )
        40           B   tau(  40) = (   0.4306768   0.5786256   0.5686018  )
        41           B   tau(  41) = (   0.3582130   0.7025553   0.5686018  )
        42           B   tau(  42) = (   0.2861920   0.8256172   0.5686018  )
        43           B   tau(  43) = (   0.8574640   0.0828701   0.5686018  )
        44           B   tau(  44) = (   0.7859547   0.2067416   0.5686018  )
        45           B   tau(  45) = (   0.7145600   0.3305170   0.5686018  )
        46           B   tau(  46) = (   0.6433029   0.4541633   0.5686018  )
        47           B   tau(  47) = (   0.5726896   0.5781661   0.5686018  )
        48           B   tau(  48) = (   0.5009648   0.7022981   0.5686018  )
        49           B   tau(  49) = (   0.4292621   0.8258438   0.5686018  )
        50           N   tau(  50) = (   0.0713718   0.0409939   0.5686018  )
        51           N   tau(  51) = (  -0.0002012   0.1644888   0.5686018  )
        52           N   tau(  52) = (  -0.0714653   0.2887699   0.5686018  )
        53           N   tau(  53) = (  -0.1432486   0.4125498   0.5686018  )
        54           N   tau(  54) = (  -0.2144671   0.5363319   0.5686018  )
        55           N   tau(  55) = (  -0.2854949   0.6601976   0.5686018  )
        56           N   tau(  56) = (  -0.3568675   0.7839647   0.5686018  )
        57           N   tau(  57) = (   0.2144637   0.0409685   0.5686018  )
        58           N   tau(  58) = (   0.1428765   0.1641421   0.5686018  )
        59           N   tau(  59) = (   0.0712464   0.2876066   0.5686018  )
        60           N   tau(  60) = (  -0.0007732   0.4127079   0.5686018  )
        61           N   tau(  61) = (  -0.0721948   0.5366615   0.5686018  )
        62           N   tau(  62) = (  -0.1428895   0.6604244   0.5686018  )
        63           N   tau(  63) = (  -0.2139958   0.7840378   0.5686018  )
        64           N   tau(  64) = (   0.3575361   0.0411976   0.5686018  )
        65           N   tau(  65) = (   0.2863875   0.1642715   0.5686018  )
        66           N   tau(  66) = (   0.2150933   0.2864797   0.5686018  )
        67           C1  tau(  67) = (   0.1453089   0.4126565   0.5686018  )
        68           N   tau(  68) = (   0.0696807   0.5376966   0.5686018  )
        69           N   tau(  69) = (  -0.0003605   0.6610824   0.5686018  )
        70           N   tau(  70) = (  -0.0712110   0.7844588   0.5686018  )
        71           N   tau(  71) = (   0.5001295   0.0416855   0.5686018  )
        72           N   tau(  72) = (   0.4287505   0.1653654   0.5686018  )
        73           N   tau(  73) = (   0.3567877   0.2894144   0.5686018  )
        74           N   tau(  74) = (   0.2838741   0.4140319   0.5686018  )
        75           C3  tau(  75) = (   0.2157825   0.5347197   0.5686018  )
        76           N   tau(  76) = (   0.1426972   0.6612066   0.5686018  )
        77           N   tau(  77) = (   0.0715966   0.7846728   0.5686018  )
        78           N   tau(  78) = (   0.6429603   0.0417059   0.5686018  )
        79           N   tau(  79) = (   0.5715082   0.1654451   0.5686018  )
        80           N   tau(  80) = (   0.4998280   0.2893514   0.5686018  )
        81           N   tau(  81) = (   0.4282534   0.4131961   0.5686018  )
        82           N   tau(  82) = (   0.3599478   0.5373743   0.5686018  )
        83           N   tau(  83) = (   0.2870483   0.6613866   0.5686018  )
        84           N   tau(  84) = (   0.2146849   0.7843968   0.5686018  )
        85           N   tau(  85) = (   0.7859312   0.0416837   0.5686018  )
        86           N   tau(  86) = (   0.7144392   0.1654456   0.5686018  )
        87           N   tau(  87) = (   0.6429741   0.2892276   0.5686018  )
        88           N   tau(  88) = (   0.5716643   0.4128992   0.5686018  )
        89           N   tau(  89) = (   0.5014303   0.5367361   0.5686018  )
        90           N   tau(  90) = (   0.4297869   0.6610852   0.5686018  )
        91           N   tau(  91) = (   0.3579477   0.7848207   0.5686018  )
        92           N   tau(  92) = (   0.9288493   0.0416558   0.5686018  )
        93           N   tau(  93) = (   0.8573661   0.1654126   0.5686018  )
        94           N   tau(  94) = (   0.7858615   0.2892179   0.5686018  )
        95           N   tau(  95) = (   0.7144637   0.4129232   0.5686018  )
        96           N   tau(  96) = (   0.6435895   0.5366566   0.5686018  )
        97           N   tau(  97) = (   0.5722518   0.6606755   0.5686018  )
        98           N   tau(  98) = (   0.5006838   0.7845841   0.5686018  )

     number of k points=     1
                       cart. coord. in units 2pi/alat
        k(    1) = (   0.0000000   0.0000000   0.0000000), wk =   1.0000000

     Dense  grid:   618365 G-vectors     FFT dimensions: ( 135, 135, 160)

     Occupations read from input 

      Spin-up

        1.0000   1.0000   1.0000   1.0000   1.0000   1.0000   1.0000   1.0000
        1.0000   1.0000   1.0000   1.0000   1.0000   1.0000   1.0000   1.0000
        1.0000   1.0000   1.0000   1.0000   1.0000   1.0000   1.0000   1.0000
        1.0000   1.0000   1.0000   1.0000   1.0000   1.0000   1.0000   1.0000
        1.0000   1.0000   1.0000   1.0000   1.0000   1.0000   1.0000   1.0000
        1.0000   1.0000   1.0000   1.0000   1.0000   1.0000   1.0000   1.0000
        1.0000   1.0000   1.0000   1.0000   1.0000   1.0000   1.0000   1.0000
        1.0000   1.0000   1.0000   1.0000   1.0000   1.0000   1.0000   1.0000
        1.0000   1.0000   1.0000   1.0000   1.0000   1.0000   1.0000   1.0000
        1.0000   1.0000   1.0000   1.0000   1.0000   1.0000   1.0000   1.0000
        1.0000   1.0000   1.0000   1.0000   1.0000   1.0000   1.0000   1.0000
        1.0000   1.0000   1.0000   1.0000   1.0000   1.0000   1.0000   1.0000
        1.0000   1.0000   1.0000   1.0000   1.0000   1.0000   1.0000   1.0000
        1.0000   1.0000   1.0000   1.0000   1.0000   1.0000   1.0000   1.0000
        1.0000   1.0000   1.0000   1.0000   1.0000   1.0000   1.0000   1.0000
        1.0000   1.0000   1.0000   1.0000   1.0000   1.0000   1.0000   1.0000
        1.0000   1.0000   1.0000   1.0000   1.0000   1.0000   1.0000   1.0000
        1.0000   1.0000   1.0000   1.0000   1.0000   1.0000   1.0000   1.0000
        1.0000   1.0000   1.0000   1.0000   1.0000   1.0000   1.0000   1.0000
        1.0000   1.0000   1.0000   1.0000   1.0000   1.0000   1.0000   1.0000
        1.0000   1.0000   1.0000   1.0000   1.0000   1.0000   1.0000   1.0000
        1.0000   1.0000   1.0000   1.0000   1.0000   1.0000   1.0000   1.0000
        1.0000   1.0000   1.0000   1.0000   1.0000   1.0000   1.0000   1.0000
        1.0000   1.0000   1.0000   1.0000   1.0000   1.0000   1.0000   1.0000
        1.0000   1.0000   1.0000   1.0000   0.0000   0.0000   0.0000   0.0000
        0.0000   0.0000   0.0000   0.0000   0.0000   0.0000   0.0000   0.0000
        0.0000   0.0000   0.0000   0.0000   0.0000   0.0000   0.0000   0.0000
        0.0000   0.0000   0.0000   0.0000   0.0000   0.0000   0.0000   0.0000
        0.0000   0.0000   0.0000   0.0000   0.0000   0.0000   0.0000   0.0000
        0.0000   0.0000   0.0000   0.0000   0.0000   0.0000   0.0000   0.0000
        0.0000   0.0000   0.0000   0.0000   0.0000

      Spin-down

        1.0000   1.0000   1.0000   1.0000   1.0000   1.0000   1.0000   1.0000
        1.0000   1.0000   1.0000   1.0000   1.0000   1.0000   1.0000   1.0000
        1.0000   1.0000   1.0000   1.0000   1.0000   1.0000   1.0000   1.0000
        1.0000   1.0000   1.0000   1.0000   1.0000   1.0000   1.0000   1.0000
        1.0000   1.0000   1.0000   1.0000   1.0000   1.0000   1.0000   1.0000
        1.0000   1.0000   1.0000   1.0000   1.0000   1.0000   1.0000   1.0000
        1.0000   1.0000   1.0000   1.0000   1.0000   1.0000   1.0000   1.0000
        1.0000   1.0000   1.0000   1.0000   1.0000   1.0000   1.0000   1.0000
        1.0000   1.0000   1.0000   1.0000   1.0000   1.0000   1.0000   1.0000
        1.0000   1.0000   1.0000   1.0000   1.0000   1.0000   1.0000   1.0000
        1.0000   1.0000   1.0000   1.0000   1.0000   1.0000   1.0000   1.0000
        1.0000   1.0000   1.0000   1.0000   1.0000   1.0000   1.0000   1.0000
        1.0000   1.0000   1.0000   1.0000   1.0000   1.0000   1.0000   1.0000
        1.0000   1.0000   1.0000   1.0000   1.0000   1.0000   1.0000   1.0000
        1.0000   1.0000   1.0000   1.0000   1.0000   1.0000   1.0000   1.0000
        1.0000   1.0000   1.0000   1.0000   1.0000   1.0000   1.0000   1.0000
        1.0000   1.0000   1.0000   1.0000   1.0000   1.0000   1.0000   1.0000
        1.0000   1.0000   1.0000   1.0000   1.0000   1.0000   1.0000   1.0000
        1.0000   1.0000   1.0000   1.0000   1.0000   1.0000   1.0000   1.0000
        1.0000   1.0000   1.0000   1.0000   1.0000   1.0000   1.0000   1.0000
        1.0000   1.0000   1.0000   1.0000   1.0000   1.0000   1.0000   1.0000
        1.0000   1.0000   1.0000   1.0000   1.0000   1.0000   1.0000   1.0000
        1.0000   1.0000   1.0000   1.0000   1.0000   1.0000   1.0000   1.0000
        1.0000   1.0000   1.0000   1.0000   1.0000   1.0000   1.0000   1.0000
        1.0000   1.0000   0.0000   1.0000   0.0000   0.0000   0.0000   0.0000
        0.0000   0.0000   0.0000   0.0000   0.0000   0.0000   0.0000   0.0000
        0.0000   0.0000   0.0000   0.0000   0.0000   0.0000   0.0000   0.0000
        0.0000   0.0000   0.0000   0.0000   0.0000   0.0000   0.0000   0.0000
        0.0000   0.0000   0.0000   0.0000   0.0000   0.0000   0.0000   0.0000
        0.0000   0.0000   0.0000   0.0000   0.0000   0.0000   0.0000   0.0000
        0.0000   0.0000   0.0000   0.0000   0.0000

     Estimated max dynamical RAM per process >     122.32 MB

     Estimated total dynamical RAM >       7.65 GB
     Generating pointlists ...
     new r_m :   0.0336 (alat units)  1.1164 (a.u.) for type    1
     new r_m :   0.0327 (alat units)  1.0870 (a.u.) for type    2
     new r_m :   0.0334 (alat units)  1.1111 (a.u.) for type    3
     new r_m :   0.0327 (alat units)  1.0870 (a.u.) for type    4
     new r_m :   0.0334 (alat units)  1.1110 (a.u.) for type    5

     Check: negative core charge=   -0.000006

     Initial potential from superposition of free atoms

     starting charge  390.98597, renormalised to  391.00000

     negative rho (up, down):  5.498E-02 5.940E-02
     Starting wfcs are  392 randomized atomic wfcs
     Checking if some PAW data can be deallocated... 

     total cpu time spent up to now is        7.0 secs

     Self-consistent Calculation

     iteration #  1     ecut=    40.00 Ry     beta= 0.70
     CG style diagonalization
     ethr =  1.00E-02,  avg # of iterations =  3.1

     negative rho (up, down):  3.257E-01 7.983E-03

     total cpu time spent up to now is       42.9 secs

     total energy              =   -1933.41280799 Ry
     Harris-Foulkes estimate   =   -1946.47638024 Ry
     estimated scf accuracy    <      19.91219185 Ry

     total magnetization       =     1.00 Bohr mag/cell
     absolute magnetization    =     1.88 Bohr mag/cell

     iteration #  2     ecut=    40.00 Ry     beta= 0.70
     CG style diagonalization
     ethr =  5.09E-03,  avg # of iterations =  4.0

     negative rho (up, down):  3.615E-01 5.421E-03

     total cpu time spent up to now is       77.8 secs

     total energy              =   -1937.56955040 Ry
     Harris-Foulkes estimate   =   -1943.88356867 Ry
     estimated scf accuracy    <      12.32596558 Ry

     total magnetization       =     1.00 Bohr mag/cell
     absolute magnetization    =     1.57 Bohr mag/cell

     iteration #  3     ecut=    40.00 Ry     beta= 0.70
     CG style diagonalization
     ethr =  3.15E-03,  avg # of iterations =  3.8

     negative rho (up, down):  4.160E-01 4.778E-03

     total cpu time spent up to now is      110.4 secs

     total energy              =   -1940.09303992 Ry
     Harris-Foulkes estimate   =   -1940.54987583 Ry
     estimated scf accuracy    <       0.78022072 Ry

     total magnetization       =     1.00 Bohr mag/cell
     absolute magnetization    =     1.29 Bohr mag/cell

     iteration #  4     ecut=    40.00 Ry     beta= 0.70
     CG style diagonalization
     ethr =  2.00E-04,  avg # of iterations =  4.4

     negative rho (up, down):  4.585E-01 3.828E-03

     total cpu time spent up to now is      149.9 secs

     total energy              =   -1940.25351663 Ry
     Harris-Foulkes estimate   =   -1940.52723535 Ry
     estimated scf accuracy    <       0.73313714 Ry

     total magnetization       =     1.00 Bohr mag/cell
     absolute magnetization    =     1.39 Bohr mag/cell

     iteration #  5     ecut=    40.00 Ry     beta= 0.70
     CG style diagonalization
     c_bands:  2 eigenvalues not converged
     ethr =  1.88E-04,  avg # of iterations =  3.3

     negative rho (up, down):  4.708E-01 3.542E-03

     total cpu time spent up to now is      176.9 secs

     total energy              =   -1940.38451910 Ry
     Harris-Foulkes estimate   =   -1940.39930262 Ry
     estimated scf accuracy    <       0.05215251 Ry

     total magnetization       =     1.00 Bohr mag/cell
     absolute magnetization    =     1.22 Bohr mag/cell

     iteration #  6     ecut=    40.00 Ry     beta= 0.70
     CG style diagonalization
     c_bands:  3 eigenvalues not converged
     c_bands:  3 eigenvalues not converged
     ethr =  1.33E-05,  avg # of iterations =  4.1

     negative rho (up, down):  4.808E-01 3.776E-03

     total cpu time spent up to now is      212.9 secs

     total energy              =   -1940.39008640 Ry
     Harris-Foulkes estimate   =   -1940.39337035 Ry
     estimated scf accuracy    <       0.01364627 Ry

     total magnetization       =     1.00 Bohr mag/cell
     absolute magnetization    =     1.20 Bohr mag/cell

     iteration #  7     ecut=    40.00 Ry     beta= 0.70
     CG style diagonalization
     c_bands:  2 eigenvalues not converged
     c_bands:  3 eigenvalues not converged
     ethr =  3.49E-06,  avg # of iterations =  7.4

     negative rho (up, down):  4.841E-01 3.888E-03

     total cpu time spent up to now is      275.3 secs

     total energy              =   -1940.39327599 Ry
     Harris-Foulkes estimate   =   -1940.39372868 Ry
     estimated scf accuracy    <       0.00221657 Ry

     total magnetization       =     1.00 Bohr mag/cell
     absolute magnetization    =     1.18 Bohr mag/cell

     iteration #  8     ecut=    40.00 Ry     beta= 0.70
     CG style diagonalization
     c_bands:  1 eigenvalues not converged
     c_bands:  5 eigenvalues not converged
     ethr =  5.67E-07,  avg # of iterations =  3.9

     negative rho (up, down):  4.844E-01 3.890E-03

     total cpu time spent up to now is      309.1 secs

     total energy              =   -1940.39366214 Ry
     Harris-Foulkes estimate   =   -1940.39410314 Ry
     estimated scf accuracy    <       0.00124711 Ry

     total magnetization       =     1.00 Bohr mag/cell
     absolute magnetization    =     1.17 Bohr mag/cell

     iteration #  9     ecut=    40.00 Ry     beta= 0.70
     CG style diagonalization
     c_bands:  4 eigenvalues not converged
     ethr =  3.19E-07,  avg # of iterations =  3.5

     negative rho (up, down):  4.844E-01 3.948E-03

     total cpu time spent up to now is      338.2 secs

     total energy              =   -1940.39392153 Ry
     Harris-Foulkes estimate   =   -1940.39395285 Ry
     estimated scf accuracy    <       0.00020508 Ry

     total magnetization       =     1.00 Bohr mag/cell
     absolute magnetization    =     1.17 Bohr mag/cell

     iteration # 10     ecut=    40.00 Ry     beta= 0.70
     CG style diagonalization
     ethr =  5.24E-08,  avg # of iterations =  3.6

     negative rho (up, down):  4.843E-01 3.958E-03

     total cpu time spent up to now is      369.1 secs

     total energy              =   -1940.39398816 Ry
     Harris-Foulkes estimate   =   -1940.39398732 Ry
     estimated scf accuracy    <       0.00003927 Ry

     total magnetization       =     1.00 Bohr mag/cell
     absolute magnetization    =     1.17 Bohr mag/cell

     iteration # 11     ecut=    40.00 Ry     beta= 0.70
     CG style diagonalization
     ethr =  1.00E-08,  avg # of iterations =  3.7

     negative rho (up, down):  4.844E-01 3.977E-03

     total cpu time spent up to now is      400.1 secs

     total energy              =   -1940.39400194 Ry
     Harris-Foulkes estimate   =   -1940.39400282 Ry
     estimated scf accuracy    <       0.00001145 Ry

     total magnetization       =     1.00 Bohr mag/cell
     absolute magnetization    =     1.17 Bohr mag/cell

     iteration # 12     ecut=    40.00 Ry     beta= 0.70
     CG style diagonalization
     ethr =  2.93E-09,  avg # of iterations =  3.6

     negative rho (up, down):  4.844E-01 3.987E-03

     total cpu time spent up to now is      430.3 secs

     total energy              =   -1940.39400612 Ry
     Harris-Foulkes estimate   =   -1940.39400530 Ry
     estimated scf accuracy    <       0.00000235 Ry

     total magnetization       =     1.00 Bohr mag/cell
     absolute magnetization    =     1.17 Bohr mag/cell

     iteration # 13     ecut=    40.00 Ry     beta= 0.70
     CG style diagonalization
     ethr =  6.02E-10,  avg # of iterations =  4.0

     negative rho (up, down):  4.844E-01 3.977E-03

     total cpu time spent up to now is      464.8 secs

     total energy              =   -1940.39400742 Ry
     Harris-Foulkes estimate   =   -1940.39400766 Ry
     estimated scf accuracy    <       0.00000139 Ry

     total magnetization       =     1.00 Bohr mag/cell
     absolute magnetization    =     1.17 Bohr mag/cell

     iteration # 14     ecut=    40.00 Ry     beta= 0.70
     CG style diagonalization
     ethr =  3.56E-10,  avg # of iterations =  3.3

     negative rho (up, down):  4.844E-01 3.980E-03

     total cpu time spent up to now is      491.6 secs

     total energy              =   -1940.39400762 Ry
     Harris-Foulkes estimate   =   -1940.39400769 Ry
     estimated scf accuracy    <       0.00000031 Ry

     total magnetization       =     1.00 Bohr mag/cell
     absolute magnetization    =     1.17 Bohr mag/cell

     iteration # 15     ecut=    40.00 Ry     beta= 0.70
     CG style diagonalization
     ethr =  7.83E-11,  avg # of iterations =  3.6

     negative rho (up, down):  4.844E-01 3.979E-03

     total cpu time spent up to now is      522.1 secs

     total energy              =   -1940.39400770 Ry
     Harris-Foulkes estimate   =   -1940.39400769 Ry
     estimated scf accuracy    <       0.00000003 Ry

     total magnetization       =     1.00 Bohr mag/cell
     absolute magnetization    =     1.17 Bohr mag/cell

     iteration # 16     ecut=    40.00 Ry     beta= 0.70
     CG style diagonalization
     ethr =  8.33E-12,  avg # of iterations =  3.9

     negative rho (up, down):  4.844E-01 3.977E-03

     total cpu time spent up to now is      556.1 secs

     total energy              =   -1940.39400773 Ry
     Harris-Foulkes estimate   =   -1940.39400772 Ry
     estimated scf accuracy    <       0.00000001 Ry

     total magnetization       =     1.00 Bohr mag/cell
     absolute magnetization    =     1.17 Bohr mag/cell

     iteration # 17     ecut=    40.00 Ry     beta= 0.70
     CG style diagonalization
     ethr =  2.97E-12,  avg # of iterations =  3.7

     negative rho (up, down):  4.844E-01 3.977E-03
 
     Magnetic moment per site:
     atom:    1    charge:    0.8511    magn:   -0.0000    constr:    0.0000
     atom:    2    charge:    0.8467    magn:    0.0003    constr:    0.0000
     atom:    3    charge:    0.8482    magn:   -0.0004    constr:    0.0000
     atom:    4    charge:    0.8494    magn:    0.0002    constr:    0.0000
     atom:    5    charge:    0.8521    magn:    0.0000    constr:    0.0000
     atom:    6    charge:    0.8508    magn:    0.0000    constr:    0.0000
     atom:    7    charge:    0.8517    magn:    0.0003    constr:    0.0000
     atom:    8    charge:    0.8507    magn:   -0.0000    constr:    0.0000
     atom:    9    charge:    0.8514    magn:   -0.0000    constr:    0.0000
     atom:   10    charge:    0.8446    magn:   -0.0009    constr:    0.0000
     atom:   11    charge:    0.8490    magn:   -0.0004    constr:    0.0000
     atom:   12    charge:    0.8514    magn:   -0.0004    constr:    0.0000
     atom:   13    charge:    0.8521    magn:    0.0002    constr:    0.0000
     atom:   14    charge:    0.8508    magn:    0.0000    constr:    0.0000
     atom:   15    charge:    0.8508    magn:    0.0003    constr:    0.0000
     atom:   16    charge:    0.8560    magn:   -0.0003    constr:    0.0000
     atom:   17    charge:    0.8626    magn:   -0.0019    constr:    0.0000
     atom:   18    charge:    0.8539    magn:   -0.0052    constr:    0.0000
     atom:   19    charge:    0.8550    magn:   -0.0018    constr:    0.0000
     atom:   20    charge:    0.8514    magn:   -0.0004    constr:    0.0000
     atom:   21    charge:    0.8521    magn:    0.0000    constr:    0.0000
     atom:   22    charge:    0.8474    magn:    0.0001    constr:    0.0000
     atom:   23    charge:    0.8443    magn:   -0.0004    constr:    0.0000
     atom:   24    charge:    0.8412    magn:    0.0008    constr:    0.0000
     atom:   25    charge:    1.5811    magn:    0.0321    constr:    0.0000
     atom:   26    charge:    0.8539    magn:   -0.0052    constr:    0.0000
     atom:   27    charge:    0.8490    magn:   -0.0004    constr:    0.0000
     atom:   28    charge:    0.8494    magn:    0.0002    constr:    0.0000
     atom:   29    charge:    0.8473    magn:    0.0000    constr:    0.0000
     atom:   30    charge:    0.8478    magn:    0.0005    constr:    0.0000
     atom:   31    charge:    0.8464    magn:    0.0018    constr:    0.0000
     atom:   32    charge:    0.8412    magn:    0.0008    constr:    0.0000
     atom:   33    charge:    0.8626    magn:   -0.0019    constr:    0.0000
     atom:   34    charge:    0.8446    magn:   -0.0009    constr:    0.0000
     atom:   35    charge:    0.8482    magn:   -0.0004    constr:    0.0000
     atom:   36    charge:    0.8472    magn:    0.0000    constr:    0.0000
     atom:   37    charge:    0.8464    magn:    0.0003    constr:    0.0000
     atom:   38    charge:    0.8478    magn:    0.0005    constr:    0.0000
     atom:   39    charge:    0.8443    magn:   -0.0004    constr:    0.0000
     atom:   40    charge:    0.8560    magn:   -0.0003    constr:    0.0000
     atom:   41    charge:    0.8514    magn:   -0.0000    constr:    0.0000
     atom:   42    charge:    0.8467    magn:    0.0003    constr:    0.0000
     atom:   43    charge:    0.8466    magn:    0.0002    constr:    0.0000
     atom:   44    charge:    0.8472    magn:   -0.0000    constr:    0.0000
     atom:   45    charge:    0.8473    magn:    0.0000    constr:    0.0000
     atom:   46    charge:    0.8474    magn:    0.0001    constr:    0.0000
     atom:   47    charge:    0.8508    magn:    0.0003    constr:    0.0000
     atom:   48    charge:    0.8507    magn:   -0.0000    constr:    0.0000
     atom:   49    charge:    0.8511    magn:   -0.0000    constr:    0.0000
     atom:   50    charge:    2.6751    magn:    0.0004    constr:    0.0000
     atom:   51    charge:    2.6733    magn:    0.0004    constr:    0.0000
     atom:   52    charge:    2.6631    magn:    0.0047    constr:    0.0000
     atom:   53    charge:    2.6728    magn:    0.0034    constr:    0.0000
     atom:   54    charge:    2.6746    magn:    0.0001    constr:    0.0000
     atom:   55    charge:    2.6663    magn:    0.0002    constr:    0.0000
     atom:   56    charge:    2.6698    magn:   -0.0000    constr:    0.0000
     atom:   57    charge:    2.6711    magn:   -0.0001    constr:    0.0000
     atom:   58    charge:    2.6724    magn:    0.0035    constr:    0.0000
     atom:   59    charge:    2.6605    magn:    0.0244    constr:    0.0000
     atom:   60    charge:    2.6664    magn:    0.0002    constr:    0.0000
     atom:   61    charge:    2.6706    magn:    0.0105    constr:    0.0000
     atom:   62    charge:    2.6663    magn:    0.0052    constr:    0.0000
     atom:   63    charge:    2.6663    magn:    0.0002    constr:    0.0000
     atom:   64    charge:    2.6745    magn:    0.0003    constr:    0.0000
     atom:   65    charge:    2.6746    magn:    0.0041    constr:    0.0000
     atom:   66    charge:    2.6779    magn:    0.0005    constr:    0.0000
     atom:   67    charge:    1.7242    magn:    0.0430    constr:    0.0000
     atom:   68    charge:    2.6572    magn:    0.0749    constr:    0.0000
     atom:   69    charge:    2.6706    magn:    0.0105    constr:    0.0000
     atom:   70    charge:    2.6746    magn:    0.0001    constr:    0.0000
     atom:   71    charge:    2.6739    magn:    0.0003    constr:    0.0000
     atom:   72    charge:    2.6692    magn:   -0.0001    constr:    0.0000
     atom:   73    charge:    2.6644    magn:    0.0101    constr:    0.0000
     atom:   74    charge:    2.6290    magn:    0.1095    constr:    0.0000
     atom:   75    charge:    1.7240    magn:    0.0430    constr:    0.0000
     atom:   76    charge:    2.6664    magn:    0.0002    constr:    0.0000
     atom:   77    charge:    2.6728    magn:    0.0034    constr:    0.0000
     atom:   78    charge:    2.6716    magn:    0.0001    constr:    0.0000
     atom:   79    charge:    2.6682    magn:    0.0001    constr:    0.0000
     atom:   80    charge:    2.6616    magn:    0.0048    constr:    0.0000
     atom:   81    charge:    2.6644    magn:    0.0101    constr:    0.0000
     atom:   82    charge:    2.6779    magn:    0.0004    constr:    0.0000
     atom:   83    charge:    2.6605    magn:    0.0243    constr:    0.0000
     atom:   84    charge:    2.6631    magn:    0.0047    constr:    0.0000
     atom:   85    charge:    2.6702    magn:    0.0005    constr:    0.0000
     atom:   86    charge:    2.6699    magn:    0.0001    constr:    0.0000
     atom:   87    charge:    2.6682    magn:    0.0001    constr:    0.0000
     atom:   88    charge:    2.6692    magn:   -0.0001    constr:    0.0000
     atom:   89    charge:    2.6746    magn:    0.0041    constr:    0.0000
     atom:   90    charge:    2.6724    magn:    0.0035    constr:    0.0000
     atom:   91    charge:    2.6733    magn:    0.0004    constr:    0.0000
     atom:   92    charge:    2.6754    magn:    0.0001    constr:    0.0000
     atom:   93    charge:    2.6702    magn:    0.0005    constr:    0.0000
     atom:   94    charge:    2.6716    magn:    0.0001    constr:    0.0000
     atom:   95    charge:    2.6739    magn:    0.0003    constr:    0.0000
     atom:   96    charge:    2.6745    magn:    0.0003    constr:    0.0000
     atom:   97    charge:    2.6711    magn:   -0.0001    constr:    0.0000
     atom:   98    charge:    2.6751    magn:    0.0004    constr:    0.0000

     total cpu time spent up to now is      587.2 secs

     End of self-consistent calculation

 ------ SPIN UP ------------


          k = 0.0000 0.0000 0.0000 ( 77355 PWs)   bands (ev):

   -22.0098 -21.6836 -21.4214 -21.4036 -21.3634 -21.2994 -21.2737 -20.9092
   -20.6728 -20.6607 -20.6134 -20.5493 -20.5482 -20.4342 -20.2986 -20.2881
   -20.2618 -20.1356 -20.0808 -19.6158 -19.4541 -19.4323 -19.3927 -19.3897
   -19.3752 -19.3669 -19.3533 -19.3113 -19.2871 -19.1781 -19.1552 -19.0345
   -18.9714 -18.9627 -18.9313 -18.7671 -18.7649 -18.5647 -18.5435 -18.5401
   -18.5062 -18.4615 -18.4058 -18.3751 -18.3623 -18.3135 -18.3000 -16.8171
   -14.7594 -13.1919 -12.7941 -12.7888 -12.7439 -12.7196 -12.7149 -12.6333
   -12.5847 -12.5268 -12.5208 -12.4556 -12.3939 -12.1667 -12.0616 -12.0569
   -12.0158 -11.9819 -11.9328 -11.5827 -11.4219 -11.4212 -11.4069 -11.3949
   -11.3596 -11.3491 -11.3336 -11.3016 -11.2945 -11.0836 -11.0012 -10.8864
   -10.7235 -10.7079 -10.6646 -10.6285 -10.4701 -10.0772 -10.0198 -10.0042
    -9.9336  -9.8787  -9.7916  -9.4229  -9.3724  -9.3446  -9.3011  -9.2896
    -9.2796  -9.2041  -9.0786  -9.0295  -8.9605  -8.9077  -8.9065  -8.8984
    -8.8981  -8.8865  -8.8709  -8.8582  -8.8546  -8.8330  -8.8214  -8.8114
    -8.8009  -8.7717  -8.7586  -8.7262  -8.7131  -8.7040  -8.6438  -8.6193
    -8.4615  -8.4336  -8.2428  -8.1732  -8.1711  -8.0725  -8.0678  -8.0363
    -7.8428  -7.8356  -7.8070  -7.7845  -7.7258  -7.7141  -7.5849  -7.5131
    -7.4995  -7.4854  -7.4840  -7.4545  -7.4318  -7.3941  -7.3770  -7.3437
    -7.3391  -7.3162  -7.3156  -7.2250  -7.2226  -7.2197  -7.1514  -7.0368
    -7.0100  -6.9698  -6.8757  -6.7933  -6.6152  -6.4795  -6.3364  -6.1892
    -6.1781  -6.1531  -6.1272  -6.1023  -6.0627  -6.0570  -6.0510  -6.0300
    -6.0279  -6.0230  -6.0016  -5.9474  -5.8783  -5.7847  -5.7706  -5.6399
    -5.5392  -5.4470  -5.4454  -5.4381  -5.3048  -5.2239  -4.9599  -4.9595
    -4.8161  -4.8045  -4.7730  -4.7402  -4.6729  -4.6536  -4.5600  -4.5169
    -4.5008  -4.4733  -4.3895  -3.0769   0.0543   0.1783   0.6504   0.6652
     0.7079   0.7206   0.7280   0.7415   0.7732   0.7966   0.7975   0.7990
     0.8172   0.8335   0.8543   0.8695   0.8763   0.9140   0.9442   0.9456
     1.0290   1.1408   1.2064   1.2433   1.2768   1.3062   1.3139   1.3249
     1.3292   1.3423   1.3510   1.3753   1.4140   1.4283   1.4331   1.4412
     1.4497   1.4654   1.4899   1.8840   2.0622   2.0910   2.0937   2.1160
     2.1184   2.1466   2.1505   2.2102   2.2556

 ------ SPIN DOWN ----------


          k = 0.0000 0.0000 0.0000 ( 77355 PWs)   bands (ev):

   -21.8890 -21.6505 -21.4183 -21.3988 -21.3589 -21.2726 -21.2659 -20.8761
   -20.6663 -20.6488 -20.6098 -20.5423 -20.5371 -20.4256 -20.2932 -20.2800
   -20.2387 -20.1084 -20.0741 -19.5840 -19.4456 -19.4251 -19.3882 -19.3834
   -19.3709 -19.3632 -19.3402 -19.2904 -19.2831 -19.1612 -19.1442 -19.0264
   -18.9633 -18.9574 -18.9059 -18.7608 -18.7499 -18.5572 -18.5371 -18.5247
   -18.4959 -18.4551 -18.3988 -18.3646 -18.3568 -18.3022 -18.2718 -16.6265
   -14.6537 -13.1516 -12.7906 -12.7825 -12.7414 -12.7177 -12.7133 -12.6292
   -12.5800 -12.5227 -12.5170 -12.4439 -12.3881 -12.1594 -12.0566 -12.0525
   -12.0126 -11.9737 -11.9237 -11.5695 -11.4143 -11.4100 -11.4044 -11.3873
   -11.3578 -11.3403 -11.3285 -11.2915 -11.2863 -11.0634 -10.9886 -10.8791
   -10.7201 -10.7067 -10.6587 -10.6207 -10.4647 -10.0651 -10.0125  -9.9948
    -9.9227  -9.8647  -9.7814  -9.4143  -9.3355  -9.3261  -9.2933  -9.2847
    -9.2759  -9.2017  -9.0675  -8.9471  -8.9193  -8.9040  -8.9022  -8.8956
    -8.8921  -8.8804  -8.8609  -8.8546  -8.8485  -8.8208  -8.8183  -8.8054
    -8.7915  -8.7661  -8.7560  -8.7137  -8.6973  -8.6337  -8.6165  -8.6110
    -8.4571  -8.4159  -8.2401  -8.1707  -8.1693  -8.0624  -8.0515  -7.9183
    -7.8301  -7.8097  -7.7987  -7.7776  -7.7008  -7.6889  -7.5766  -7.5060
    -7.4931  -7.4799  -7.4532  -7.4361  -7.4308  -7.3905  -7.3718  -7.3332
    -7.3184  -7.3111  -7.2770  -7.2141  -7.2080  -7.1623  -7.1361  -7.0344
    -6.9965  -6.9667  -6.8572  -6.7765  -6.6049  -6.4715  -6.2338  -6.1831
    -6.1724  -6.1463  -6.1092  -6.0880  -6.0502  -6.0431  -6.0391  -6.0222
    -6.0143  -6.0024  -5.9443  -5.9378  -5.8179  -5.7630  -5.7629  -5.6320
    -5.5104  -5.4368  -5.4316  -5.3916  -5.2463  -5.1988  -4.9236  -4.9228
    -4.7831  -4.7784  -4.7545  -4.7186  -4.6572  -4.6055  -4.5424  -4.5067
    -4.4739  -4.4526  -4.0654  -2.8658   0.1799   0.2040   0.6706   0.6848
     0.7089   0.7264   0.7424   0.7450   0.7752   0.7969   0.7991   0.8034
     0.8181   0.8348   0.8579   0.8771   0.8796   0.9247   0.9513   0.9521
     1.0344   1.1629   1.2186   1.2561   1.2778   1.3066   1.3140   1.3289
     1.3350   1.3433   1.3589   1.3822   1.4179   1.4285   1.4331   1.4414
     1.4502   1.4657   1.4930   1.8859   2.0935   2.0947   2.1189   2.1191
     2.1281   2.3001   2.3372   2.3592   2.4441

     highest occupied, lowest unoccupied level (ev):    -3.0769   -4.0654

!    total energy              =   -1940.39400773 Ry
     Harris-Foulkes estimate   =   -1940.39400773 Ry
     estimated scf accuracy    <          2.7E-09 Ry

     total all-electron energy =     -7770.218485 Ry

     The total energy is the sum of the following terms:

     one-electron contribution =  -10657.20827786 Ry
     hartree contribution      =    5414.28006238 Ry
     xc contribution           =    -430.78946264 Ry
     ewald contribution        =    4376.77702655 Ry
     DFT-D3 Dispersion         =      -0.27036191 Ry
     one-center paw contrib.   =    -643.18299425 Ry

     total magnetization       =     1.00 Bohr mag/cell
     absolute magnetization    =     1.17 Bohr mag/cell

     convergence has been achieved in  17 iterations

     negative rho (up, down):  4.844E-01 3.977E-03

     Forces acting on atoms (cartesian axes, Ry/au):

     atom    1 type  1   force =     0.00025432   -0.00064903    0.00000000
     atom    2 type  1   force =     0.00010391   -0.00052539    0.00000000
     atom    3 type  1   force =    -0.00027497    0.00007446    0.00000000
     atom    4 type  1   force =    -0.00004815    0.00023677    0.00000000
     atom    5 type  1   force =     0.00025489   -0.00046277    0.00000000
     atom    6 type  1   force =    -0.00012082   -0.00006926    0.00000000
     atom    7 type  1   force =    -0.00043130    0.00025132    0.00000000
     atom    8 type  1   force =    -0.00011132    0.00020871    0.00000000
     atom    9 type  1   force =     0.00008340   -0.00039237    0.00000000
     atom   10 type  1   force =    -0.00014012   -0.00040697    0.00000000
     atom   11 type  1   force =    -0.00000589   -0.00048151    0.00000000
     atom   12 type  1   force =     0.00044128   -0.00023028    0.00000000
     atom   13 type  1   force =     0.00044657   -0.00025922    0.00000000
     atom   14 type  1   force =    -0.00000163    0.00014164    0.00000000
     atom   15 type  1   force =    -0.00048197    0.00000868    0.00000000
     atom   16 type  1   force =    -0.00050337   -0.00014020    0.00000000
     atom   17 type  1   force =     0.00003917   -0.00047832    0.00000000
     atom   18 type  1   force =     0.00041912   -0.00035590    0.00000000
     atom   19 type  1   force =     0.00003097   -0.00002619    0.00000000
     atom   20 type  1   force =     0.00041007   -0.00026670    0.00000000
     atom   21 type  1   force =     0.00052313    0.00001219    0.00000000
     atom   22 type  1   force =    -0.00006364   -0.00069924    0.00000000
     atom   23 type  1   force =    -0.00081410    0.00010884    0.00000000
     atom   24 type  1   force =    -0.00066289    0.00031734    0.00000000
     atom   25 type  4   force =     0.00006265   -0.00017747    0.00000000
     atom   26 type  1   force =     0.00047226   -0.00019909    0.00000000
     atom   27 type  1   force =     0.00039254    0.00025328    0.00000000
     atom   28 type  1   force =    -0.00023308   -0.00007331    0.00000000
     atom   29 type  1   force =    -0.00010241   -0.00012395    0.00000000
     atom   30 type  1   force =    -0.00043823   -0.00019585    0.00000000
     atom   31 type  1   force =    -0.00076342    0.00042939    0.00000000
     atom   32 type  1   force =    -0.00059965    0.00037447    0.00000000
     atom   33 type  1   force =     0.00044092    0.00020885    0.00000000
     atom   34 type  1   force =     0.00027961    0.00034414    0.00000000
     atom   35 type  1   force =    -0.00020822    0.00021001    0.00000000
     atom   36 type  1   force =    -0.00009236   -0.00007200    0.00000000
     atom   37 type  1   force =    -0.00013291    0.00007831    0.00000000
     atom   38 type  1   force =    -0.00004716    0.00047582    0.00000000
     atom   39 type  1   force =    -0.00049238    0.00064894    0.00000000
     atom   40 type  1   force =    -0.00011311    0.00050745    0.00000000
     atom   41 type  1   force =     0.00039771    0.00013866    0.00000000
     atom   42 type  1   force =     0.00051432    0.00018350    0.00000000
     atom   43 type  1   force =     0.00028921   -0.00016374    0.00000000
     atom   44 type  1   force =     0.00001897    0.00012053    0.00000000
     atom   45 type  1   force =     0.00005994    0.00015091    0.00000000
     atom   46 type  1   force =     0.00057782    0.00040464    0.00000000
     atom   47 type  1   force =    -0.00024245    0.00041248    0.00000000
     atom   48 type  1   force =    -0.00022166   -0.00000061    0.00000000
     atom   49 type  1   force =     0.00069576    0.00011109    0.00000000
     atom   50 type  2   force =     0.00025617    0.00006319    0.00000000
     atom   51 type  2   force =    -0.00026862    0.00001074    0.00000000
     atom   52 type  2   force =    -0.00063725   -0.00015537    0.00000000
     atom   53 type  2   force =    -0.00023406   -0.00007157    0.00000000
     atom   54 type  2   force =     0.00072594   -0.00008674    0.00000000
     atom   55 type  2   force =     0.00063519   -0.00031344    0.00000000
     atom   56 type  2   force =     0.00046423   -0.00026799    0.00000000
     atom   57 type  2   force =     0.00024975   -0.00026454    0.00000000
     atom   58 type  2   force =    -0.00021120    0.00009516    0.00000000
     atom   59 type  2   force =    -0.00035428   -0.00016660    0.00000000
     atom   60 type  2   force =    -0.00034199   -0.00011138    0.00000000
     atom   61 type  2   force =    -0.00006572   -0.00026696    0.00000000
     atom   62 type  2   force =     0.00073442   -0.00041780    0.00000000
     atom   63 type  2   force =     0.00059235   -0.00039191    0.00000000
     atom   64 type  2   force =     0.00020563    0.00001798    0.00000000
     atom   65 type  2   force =     0.00015490    0.00003357    0.00000000
     atom   66 type  2   force =    -0.00017682    0.00010773    0.00000000
     atom   67 type  3   force =     0.00009302   -0.00003773    0.00000000
     atom   68 type  2   force =    -0.00011214    0.00009783    0.00000000
     atom   69 type  2   force =     0.00021656    0.00019750    0.00000000
     atom   70 type  2   force =     0.00044453   -0.00058965    0.00000000
     atom   71 type  2   force =     0.00020903   -0.00010733    0.00000000
     atom   72 type  2   force =     0.00001994   -0.00007417    0.00000000
     atom   73 type  2   force =    -0.00007481   -0.00000706    0.00000000
     atom   74 type  2   force =     0.00015234   -0.00005318    0.00000000
     atom   75 type  5   force =     0.00011824    0.00005810    0.00000000
     atom   76 type  2   force =    -0.00005751    0.00033891    0.00000000
     atom   77 type  2   force =    -0.00004866    0.00022861    0.00000000
     atom   78 type  2   force =    -0.00026503    0.00011494    0.00000000
     atom   79 type  2   force =    -0.00030906    0.00030312    0.00000000
     atom   80 type  2   force =     0.00002294   -0.00001444    0.00000000
     atom   81 type  2   force =    -0.00004437    0.00008923    0.00000000
     atom   82 type  2   force =    -0.00020019    0.00012515    0.00000000
     atom   83 type  2   force =    -0.00004256    0.00036247    0.00000000
     atom   84 type  2   force =    -0.00018516    0.00061048    0.00000000
     atom   85 type  2   force =    -0.00042907    0.00007330    0.00000000
     atom   86 type  2   force =    -0.00042383    0.00024206    0.00000000
     atom   87 type  2   force =    -0.00041860    0.00011446    0.00000000
     atom   88 type  2   force =     0.00007005    0.00002288    0.00000000
     atom   89 type  2   force =     0.00003538   -0.00014779    0.00000000
     atom   90 type  2   force =    -0.00020693    0.00012385    0.00000000
     atom   91 type  2   force =    -0.00015289    0.00021566    0.00000000
     atom   92 type  2   force =    -0.00017096    0.00009477    0.00000000
     atom   93 type  2   force =    -0.00028259    0.00032810    0.00000000
     atom   94 type  2   force =    -0.00023949    0.00016896    0.00000000
     atom   95 type  2   force =     0.00019359   -0.00012774    0.00000000
     atom   96 type  2   force =     0.00008330   -0.00018653    0.00000000
     atom   97 type  2   force =     0.00034635   -0.00008364    0.00000000
     atom   98 type  2   force =     0.00006856   -0.00025828    0.00000000

     Total force =     0.004317     Total SCF correction =     0.000078


     Computing stress (Cartesian axis) and pressure


     negative rho (up, down):  4.844E-01 3.977E-03
          total   stress  (Ry/bohr**3)                   (kbar)     P=   -0.13
   0.00000037  -0.00000001   0.00000000          0.05     -0.00      0.00
  -0.00000001   0.00000036   0.00000000         -0.00      0.05      0.00
   0.00000000   0.00000000  -0.00000337          0.00      0.00     -0.50


     BFGS Geometry Optimization

     number of scf cycles    =   1
     number of bfgs steps    =   0

     enthalpy new            =   -1940.3940077327 Ry

     new trust radius        =       0.0008758951 bohr
     new conv_thr            =       0.0000000100 Ry

     new unit-cell volume =  36189.97225 a.u.^3 (  5362.80053 Ang^3 )
     density =      0.36352 g/cm^3

CELL_PARAMETERS (alat= 33.23461096)
   1.000269208   0.000426638   0.000000000
  -0.499765124   0.866471918   0.000000000
   0.000000000   0.000000000   1.137203616

ATOMIC_POSITIONS (crystal)
B        0.047322504   0.094842001   0.500000000
B        0.047511040   0.237974545   0.500000000
B        0.047463260   0.380928372   0.500000000
B        0.047275044   0.523715760   0.500000000
B        0.047691942   0.666638587   0.500000000
B        0.047859587   0.809661535   0.500000000
B        0.047634970   0.952365103   0.500000000
B        0.189912694   0.094428051   0.500000000
B        0.189540993   0.236938380   0.500000000
B        0.190522814   0.381079469   0.500000000
B        0.189789159   0.523500471   0.500000000
B        0.189837274   0.666754210   0.500000000
B        0.190364461   0.809635486   0.500000000
B        0.190338457   0.952140458   0.500000000
B        0.333161025   0.094293617   0.500000000
B        0.332557591   0.235964254   0.500000000
B        0.332352727   0.378248217   0.500000000
B        0.333092523   0.524725983   0.500000000
B        0.332167341   0.667832423   0.500000000
B        0.333245617   0.810162708   0.500000000
B        0.333361341   0.952308087   0.500000000
B        0.476274407   0.095177768   0.500000000
B        0.476003417   0.237845189   0.500000000
B        0.474057165   0.379407280   0.500000000
C2       0.476639351   0.523356430   0.500000000
B        0.475273067   0.666907195   0.500000000
B        0.476499217   0.810210981   0.500000000
B        0.476284212   0.952725008   0.500000000
B        0.618985421   0.095257517   0.500000000
B        0.618964681   0.238089427   0.500000000
B        0.618842227   0.381157416   0.500000000
B        0.620592422   0.525942028   0.500000000
B        0.621751976   0.667647364   0.500000000
B        0.618920701   0.809477563   0.500000000
B        0.619071624   0.952536917   0.500000000
B        0.761837731   0.095256011   0.500000000
B        0.761838468   0.238161586   0.500000000
B        0.761910602   0.381035297   0.500000000
B        0.762154967   0.523996566   0.500000000
B        0.764036049   0.667442439   0.500000000
B        0.763062019   0.810459294   0.500000000
B        0.762025691   0.952489164   0.500000000
B        0.904809746   0.095190363   0.500000000
B        0.904744082   0.238162366   0.500000000
B        0.904742553   0.381014592   0.500000000
B        0.904822286   0.523725590   0.500000000
B        0.905706469   0.666838967   0.500000000
B        0.905572278   0.810087455   0.500000000
B        0.905158185   0.952677630   0.500000000
N        0.094977023   0.047267174   0.500000000
N        0.094617112   0.189792944   0.500000000
N        0.095021840   0.333221795   0.500000000
N        0.094646372   0.476081292   0.500000000
N        0.094851541   0.618939513   0.500000000
N        0.095260312   0.761886868   0.500000000
N        0.095269941   0.904730054   0.500000000
N        0.237976045   0.047155986   0.500000000
N        0.237425748   0.189325417   0.500000000
N        0.236999026   0.331808889   0.500000000
N        0.237136819   0.476192181   0.500000000
N        0.237214994   0.619243600   0.500000000
N        0.237925467   0.762074730   0.500000000
N        0.238113213   0.904739713   0.500000000
N        0.381111666   0.047359702   0.500000000
N        0.380948724   0.189401916   0.500000000
N        0.380133620   0.330447309   0.500000000
C1       0.383129820   0.476063528   0.500000000
N        0.379620341   0.620380693   0.500000000
N        0.380756823   0.762785184   0.500000000
N        0.381060585   0.905148349   0.500000000
N        0.523912156   0.047848179   0.500000000
N        0.523864347   0.190590285   0.500000000
N        0.523449173   0.333759705   0.500000000
N        0.522419278   0.477581743   0.500000000
C3       0.523938339   0.616872559   0.500000000
N        0.523807957   0.762862927   0.500000000
N        0.523918687   0.905353401   0.500000000
N        0.666672075   0.047809051   0.500000000
N        0.666592400   0.190624998   0.500000000
N        0.666383596   0.333616339   0.500000000
N        0.666240266   0.476551246   0.500000000
N        0.669552632   0.619866913   0.500000000
N        0.668190667   0.763000417   0.500000000
N        0.666777978   0.904977768   0.500000000
N        0.809552179   0.047711644   0.500000000
N        0.809446828   0.190553096   0.500000000
N        0.809374953   0.333407563   0.500000000
N        0.809409679   0.476135722   0.500000000
N        0.810597890   0.619051345   0.500000000
N        0.810674130   0.762574019   0.500000000
N        0.810206778   0.905382657   0.500000000
N        0.952390026   0.047609872   0.500000000
N        0.952288222   0.190447690   0.500000000
N        0.952190782   0.333327860   0.500000000
N        0.952151736   0.476087840   0.500000000
N        0.952640231   0.618888358   0.500000000
N        0.952843886   0.762023961   0.500000000
N        0.952732711   0.905022891   0.500000000



     Writing output data file C2Cn.save/
     NEW-OLD atomic charge density approx. for the potential
     NEW k-points:
   0.0000000   0.0000000   0.0000000   1.0000000
   0.0000000   0.0000000   0.0000000   1.0000000

     Check: negative core charge=   -0.000006

     negative rho (up, down):  4.844E-01 1.971E-03
     extrapolated charge  391.00714, renormalised to  391.00000

     total cpu time spent up to now is      606.2 secs

     Self-consistent Calculation

     iteration #  1     ecut=    40.00 Ry     beta= 0.70
     CG style diagonalization
     ethr =  1.00E-06,  avg # of iterations =  2.0

     Threshold (ethr) on eigenvalues was too large:
     Diagonalizing with lowered threshold

     CG style diagonalization
     ethr =  7.48E-10,  avg # of iterations = 16.8

     negative rho (up, down):  4.843E-01 3.683E-03

     total cpu time spent up to now is      800.9 secs

     total energy              =   -1940.39401430 Ry
     Harris-Foulkes estimate   =   -1940.20532396 Ry
     estimated scf accuracy    <       0.00000699 Ry

     total magnetization       =     1.00 Bohr mag/cell
     absolute magnetization    =     1.17 Bohr mag/cell

     iteration #  2     ecut=    40.00 Ry     beta= 0.70
     CG style diagonalization
     ethr =  1.79E-09,  avg # of iterations =  3.9

     negative rho (up, down):  4.843E-01 3.755E-03

     total cpu time spent up to now is      834.8 secs

     total energy              =   -1940.39401649 Ry
     Harris-Foulkes estimate   =   -1940.39401973 Ry
     estimated scf accuracy    <       0.00000636 Ry

     total magnetization       =     1.00 Bohr mag/cell
     absolute magnetization    =     1.17 Bohr mag/cell

     iteration #  3     ecut=    40.00 Ry     beta= 0.70
     CG style diagonalization
     ethr =  1.63E-09,  avg # of iterations =  3.4

     negative rho (up, down):  4.844E-01 3.844E-03

     total cpu time spent up to now is      862.9 secs

     total energy              =   -1940.39401764 Ry
     Harris-Foulkes estimate   =   -1940.39401780 Ry
     estimated scf accuracy    <       0.00000029 Ry

     total magnetization       =     1.00 Bohr mag/cell
     absolute magnetization    =     1.17 Bohr mag/cell

     iteration #  4     ecut=    40.00 Ry     beta= 0.70
     CG style diagonalization
     ethr =  7.44E-11,  avg # of iterations =  3.9

     negative rho (up, down):  4.844E-01 3.900E-03

     total cpu time spent up to now is      896.8 secs

     total energy              =   -1940.39401771 Ry
     Harris-Foulkes estimate   =   -1940.39401783 Ry
     estimated scf accuracy    <       0.00000023 Ry

     total magnetization       =     1.00 Bohr mag/cell
     absolute magnetization    =     1.17 Bohr mag/cell

     iteration #  5     ecut=    40.00 Ry     beta= 0.70
     CG style diagonalization
     ethr =  5.96E-11,  avg # of iterations =  3.2

     negative rho (up, down):  4.844E-01 3.915E-03

     total cpu time spent up to now is      923.2 secs

     total energy              =   -1940.39401774 Ry
     Harris-Foulkes estimate   =   -1940.39401777 Ry
     estimated scf accuracy    <       0.00000007 Ry

     total magnetization       =     1.00 Bohr mag/cell
     absolute magnetization    =     1.17 Bohr mag/cell

     iteration #  6     ecut=    40.00 Ry     beta= 0.70
     CG style diagonalization
     ethr =  1.92E-11,  avg # of iterations =  3.2

     negative rho (up, down):  4.844E-01 3.932E-03
 
     Magnetic moment per site:
     atom:    1    charge:    0.8510    magn:   -0.0000    constr:    0.0000
     atom:    2    charge:    0.8468    magn:    0.0003    constr:    0.0000
     atom:    3    charge:    0.8483    magn:   -0.0004    constr:    0.0000
     atom:    4    charge:    0.8495    magn:    0.0002    constr:    0.0000
     atom:    5    charge:    0.8521    magn:    0.0000    constr:    0.0000
     atom:    6    charge:    0.8508    magn:    0.0000    constr:    0.0000
     atom:    7    charge:    0.8516    magn:    0.0003    constr:    0.0000
     atom:    8    charge:    0.8507    magn:   -0.0000    constr:    0.0000
     atom:    9    charge:    0.8514    magn:   -0.0000    constr:    0.0000
     atom:   10    charge:    0.8445    magn:   -0.0009    constr:    0.0000
     atom:   11    charge:    0.8490    magn:   -0.0004    constr:    0.0000
     atom:   12    charge:    0.8516    magn:   -0.0004    constr:    0.0000
     atom:   13    charge:    0.8521    magn:    0.0002    constr:    0.0000
     atom:   14    charge:    0.8508    magn:    0.0000    constr:    0.0000
     atom:   15    charge:    0.8508    magn:    0.0003    constr:    0.0000
     atom:   16    charge:    0.8559    magn:   -0.0003    constr:    0.0000
     atom:   17    charge:    0.8626    magn:   -0.0019    constr:    0.0000
     atom:   18    charge:    0.8537    magn:   -0.0052    constr:    0.0000
     atom:   19    charge:    0.8549    magn:   -0.0018    constr:    0.0000
     atom:   20    charge:    0.8516    magn:   -0.0004    constr:    0.0000
     atom:   21    charge:    0.8521    magn:    0.0000    constr:    0.0000
     atom:   22    charge:    0.8475    magn:    0.0001    constr:    0.0000
     atom:   23    charge:    0.8443    magn:   -0.0004    constr:    0.0000
     atom:   24    charge:    0.8412    magn:    0.0008    constr:    0.0000
     atom:   25    charge:    1.5811    magn:    0.0322    constr:    0.0000
     atom:   26    charge:    0.8538    magn:   -0.0052    constr:    0.0000
     atom:   27    charge:    0.8490    magn:   -0.0004    constr:    0.0000
     atom:   28    charge:    0.8495    magn:    0.0002    constr:    0.0000
     atom:   29    charge:    0.8473    magn:    0.0000    constr:    0.0000
     atom:   30    charge:    0.8479    magn:    0.0005    constr:    0.0000
     atom:   31    charge:    0.8464    magn:    0.0018    constr:    0.0000
     atom:   32    charge:    0.8412    magn:    0.0008    constr:    0.0000
     atom:   33    charge:    0.8626    magn:   -0.0019    constr:    0.0000
     atom:   34    charge:    0.8445    magn:   -0.0009    constr:    0.0000
     atom:   35    charge:    0.8483    magn:   -0.0004    constr:    0.0000
     atom:   36    charge:    0.8472    magn:   -0.0000    constr:    0.0000
     atom:   37    charge:    0.8464    magn:    0.0003    constr:    0.0000
     atom:   38    charge:    0.8479    magn:    0.0005    constr:    0.0000
     atom:   39    charge:    0.8443    magn:   -0.0004    constr:    0.0000
     atom:   40    charge:    0.8559    magn:   -0.0003    constr:    0.0000
     atom:   41    charge:    0.8514    magn:   -0.0000    constr:    0.0000
     atom:   42    charge:    0.8468    magn:    0.0003    constr:    0.0000
     atom:   43    charge:    0.8465    magn:    0.0002    constr:    0.0000
     atom:   44    charge:    0.8472    magn:   -0.0000    constr:    0.0000
     atom:   45    charge:    0.8473    magn:    0.0000    constr:    0.0000
     atom:   46    charge:    0.8475    magn:    0.0001    constr:    0.0000
     atom:   47    charge:    0.8508    magn:    0.0003    constr:    0.0000
     atom:   48    charge:    0.8506    magn:   -0.0000    constr:    0.0000
     atom:   49    charge:    0.8510    magn:   -0.0000    constr:    0.0000
     atom:   50    charge:    2.6753    magn:    0.0004    constr:    0.0000
     atom:   51    charge:    2.6732    magn:    0.0004    constr:    0.0000
     atom:   52    charge:    2.6631    magn:    0.0047    constr:    0.0000
     atom:   53    charge:    2.6728    magn:    0.0034    constr:    0.0000
     atom:   54    charge:    2.6746    magn:    0.0001    constr:    0.0000
     atom:   55    charge:    2.6661    magn:    0.0002    constr:    0.0000
     atom:   56    charge:    2.6696    magn:   -0.0000    constr:    0.0000
     atom:   57    charge:    2.6712    magn:   -0.0001    constr:    0.0000
     atom:   58    charge:    2.6726    magn:    0.0035    constr:    0.0000
     atom:   59    charge:    2.6605    magn:    0.0243    constr:    0.0000
     atom:   60    charge:    2.6664    magn:    0.0002    constr:    0.0000
     atom:   61    charge:    2.6707    magn:    0.0106    constr:    0.0000
     atom:   62    charge:    2.6663    magn:    0.0053    constr:    0.0000
     atom:   63    charge:    2.6661    magn:    0.0002    constr:    0.0000
     atom:   64    charge:    2.6746    magn:    0.0003    constr:    0.0000
     atom:   65    charge:    2.6747    magn:    0.0041    constr:    0.0000
     atom:   66    charge:    2.6780    magn:    0.0004    constr:    0.0000
     atom:   67    charge:    1.7242    magn:    0.0430    constr:    0.0000
     atom:   68    charge:    2.6571    magn:    0.0750    constr:    0.0000
     atom:   69    charge:    2.6707    magn:    0.0106    constr:    0.0000
     atom:   70    charge:    2.6746    magn:    0.0001    constr:    0.0000
     atom:   71    charge:    2.6740    magn:    0.0003    constr:    0.0000
     atom:   72    charge:    2.6690    magn:   -0.0001    constr:    0.0000
     atom:   73    charge:    2.6644    magn:    0.0101    constr:    0.0000
     atom:   74    charge:    2.6291    magn:    0.1094    constr:    0.0000
     atom:   75    charge:    1.7239    magn:    0.0429    constr:    0.0000
     atom:   76    charge:    2.6663    magn:    0.0002    constr:    0.0000
     atom:   77    charge:    2.6728    magn:    0.0034    constr:    0.0000
     atom:   78    charge:    2.6716    magn:    0.0001    constr:    0.0000
     atom:   79    charge:    2.6681    magn:    0.0001    constr:    0.0000
     atom:   80    charge:    2.6613    magn:    0.0049    constr:    0.0000
     atom:   81    charge:    2.6644    magn:    0.0101    constr:    0.0000
     atom:   82    charge:    2.6780    magn:    0.0004    constr:    0.0000
     atom:   83    charge:    2.6605    magn:    0.0243    constr:    0.0000
     atom:   84    charge:    2.6631    magn:    0.0047    constr:    0.0000
     atom:   85    charge:    2.6703    magn:    0.0005    constr:    0.0000
     atom:   86    charge:    2.6699    magn:    0.0001    constr:    0.0000
     atom:   87    charge:    2.6681    magn:    0.0001    constr:    0.0000
     atom:   88    charge:    2.6690    magn:   -0.0001    constr:    0.0000
     atom:   89    charge:    2.6747    magn:    0.0041    constr:    0.0000
     atom:   90    charge:    2.6726    magn:    0.0035    constr:    0.0000
     atom:   91    charge:    2.6732    magn:    0.0004    constr:    0.0000
     atom:   92    charge:    2.6755    magn:    0.0001    constr:    0.0000
     atom:   93    charge:    2.6703    magn:    0.0005    constr:    0.0000
     atom:   94    charge:    2.6716    magn:    0.0001    constr:    0.0000
     atom:   95    charge:    2.6740    magn:    0.0003    constr:    0.0000
     atom:   96    charge:    2.6746    magn:    0.0003    constr:    0.0000
     atom:   97    charge:    2.6712    magn:   -0.0001    constr:    0.0000
     atom:   98    charge:    2.6753    magn:    0.0004    constr:    0.0000

     total cpu time spent up to now is      949.0 secs

     End of self-consistent calculation

 ------ SPIN UP ------------


          k = 0.0000 0.0000 0.0000 ( 77355 PWs)   bands (ev):

   -22.0106 -21.6834 -21.4213 -21.4030 -21.3636 -21.2987 -21.2743 -20.9087
   -20.6727 -20.6605 -20.6136 -20.5493 -20.5478 -20.4344 -20.2990 -20.2874
   -20.2616 -20.1351 -20.0806 -19.6157 -19.4541 -19.4320 -19.3930 -19.3896
   -19.3750 -19.3666 -19.3535 -19.3117 -19.2869 -19.1776 -19.1550 -19.0333
   -18.9704 -18.9629 -18.9321 -18.7682 -18.7653 -18.5644 -18.5439 -18.5395
   -18.5059 -18.4610 -18.4068 -18.3746 -18.3622 -18.3139 -18.2995 -16.8177
   -14.7600 -13.1918 -12.7941 -12.7879 -12.7436 -12.7190 -12.7153 -12.6337
   -12.5840 -12.5271 -12.5212 -12.4558 -12.3937 -12.1676 -12.0612 -12.0557
   -12.0160 -11.9824 -11.9326 -11.5821 -11.4224 -11.4210 -11.4070 -11.3955
   -11.3603 -11.3493 -11.3339 -11.3010 -11.2941 -11.0838 -11.0013 -10.8864
   -10.7244 -10.7084 -10.6633 -10.6276 -10.4702 -10.0766 -10.0190 -10.0044
    -9.9345  -9.8784  -9.7920  -9.4224  -9.3721  -9.3452  -9.3018  -9.2896
    -9.2793  -9.2049  -9.0789  -9.0297  -8.9605  -8.9081  -8.9066  -8.8980
    -8.8979  -8.8869  -8.8710  -8.8571  -8.8545  -8.8326  -8.8214  -8.8118
    -8.8012  -8.7710  -8.7576  -8.7259  -8.7136  -8.7034  -8.6433  -8.6196
    -8.4610  -8.4333  -8.2435  -8.1740  -8.1720  -8.0726  -8.0677  -8.0359
    -7.8428  -7.8355  -7.8080  -7.7847  -7.7256  -7.7138  -7.5840  -7.5121
    -7.4988  -7.4859  -7.4829  -7.4543  -7.4320  -7.3945  -7.3770  -7.3441
    -7.3383  -7.3162  -7.3157  -7.2248  -7.2241  -7.2202  -7.1512  -7.0377
    -7.0099  -6.9701  -6.8755  -6.7929  -6.6148  -6.4799  -6.3365  -6.1870
    -6.1770  -6.1544  -6.1270  -6.1019  -6.0626  -6.0569  -6.0508  -6.0300
    -6.0292  -6.0235  -6.0019  -5.9474  -5.8778  -5.7847  -5.7721  -5.6397
    -5.5383  -5.4472  -5.4454  -5.4383  -5.3054  -5.2245  -4.9606  -4.9597
    -4.8168  -4.8044  -4.7719  -4.7401  -4.6721  -4.6540  -4.5589  -4.5178
    -4.5016  -4.4732  -4.3901  -3.0776   0.0534   0.1783   0.6510   0.6638
     0.7079   0.7218   0.7280   0.7411   0.7737   0.7967   0.7978   0.7988
     0.8174   0.8331   0.8551   0.8698   0.8761   0.9132   0.9442   0.9445
     1.0292   1.1414   1.2068   1.2428   1.2767   1.3063   1.3139   1.3240
     1.3291   1.3422   1.3509   1.3751   1.4140   1.4283   1.4332   1.4412
     1.4496   1.4652   1.4898   1.8839   2.0617   2.0908   2.0936   2.1159
     2.1182   2.1465   2.1504   2.2102   2.2557

 ------ SPIN DOWN ----------


          k = 0.0000 0.0000 0.0000 ( 77355 PWs)   bands (ev):

   -21.8896 -21.6506 -21.4181 -21.3984 -21.3591 -21.2718 -21.2665 -20.8756
   -20.6662 -20.6485 -20.6100 -20.5419 -20.5371 -20.4258 -20.2937 -20.2795
   -20.2384 -20.1079 -20.0738 -19.5840 -19.4455 -19.4246 -19.3886 -19.3833
   -19.3708 -19.3630 -19.3402 -19.2907 -19.2828 -19.1608 -19.1440 -19.0253
   -18.9622 -18.9575 -18.9066 -18.7618 -18.7501 -18.5571 -18.5361 -18.5254
   -18.4956 -18.4545 -18.3995 -18.3644 -18.3565 -18.3027 -18.2711 -16.6272
   -14.6545 -13.1515 -12.7906 -12.7815 -12.7411 -12.7172 -12.7137 -12.6297
   -12.5793 -12.5230 -12.5175 -12.4440 -12.3878 -12.1603 -12.0562 -12.0513
   -12.0129 -11.9741 -11.9236 -11.5688 -11.4143 -11.4104 -11.4044 -11.3877
   -11.3584 -11.3405 -11.3288 -11.2910 -11.2859 -11.0636 -10.9887 -10.8789
   -10.7211 -10.7072 -10.6575 -10.6199 -10.4649 -10.0645 -10.0118  -9.9950
    -9.9236  -9.8644  -9.7818  -9.4137  -9.3360  -9.3257  -9.2940  -9.2847
    -9.2755  -9.2025  -9.0679  -8.9472  -8.9191  -8.9043  -8.9022  -8.8952
    -8.8920  -8.8808  -8.8611  -8.8536  -8.8483  -8.8207  -8.8182  -8.8058
    -8.7919  -8.7656  -8.7551  -8.7133  -8.6978  -8.6333  -8.6159  -8.6112
    -8.4566  -8.4156  -8.2408  -8.1715  -8.1702  -8.0626  -8.0514  -7.9181
    -7.8301  -7.8095  -7.7997  -7.7778  -7.7005  -7.6888  -7.5756  -7.5047
    -7.4925  -7.4791  -7.4530  -7.4367  -7.4311  -7.3908  -7.3717  -7.3335
    -7.3178  -7.3111  -7.2768  -7.2156  -7.2085  -7.1621  -7.1360  -7.0352
    -6.9961  -6.9670  -6.8573  -6.7761  -6.6045  -6.4719  -6.2340  -6.1810
    -6.1710  -6.1479  -6.1089  -6.0871  -6.0507  -6.0430  -6.0387  -6.0222
    -6.0157  -6.0028  -5.9445  -5.9378  -5.8174  -5.7645  -5.7628  -5.6318
    -5.5095  -5.4370  -5.4311  -5.3921  -5.2469  -5.1993  -4.9247  -4.9227
    -4.7831  -4.7792  -4.7532  -4.7186  -4.6562  -4.6065  -4.5410  -4.5072
    -4.4745  -4.4528  -4.0661  -2.8667   0.1799   0.2033   0.6707   0.6835
     0.7089   0.7275   0.7427   0.7446   0.7757   0.7969   0.7988   0.8035
     0.8182   0.8344   0.8588   0.8769   0.8802   0.9236   0.9502   0.9520
     1.0346   1.1635   1.2193   1.2555   1.2779   1.3068   1.3140   1.3289
     1.3339   1.3431   1.3588   1.3820   1.4179   1.4286   1.4332   1.4414
     1.4501   1.4656   1.4929   1.8858   2.0934   2.0945   2.1187   2.1191
     2.1276   2.2992   2.3367   2.3588   2.4438

     highest occupied, lowest unoccupied level (ev):    -3.0776   -4.0661

!    total energy              =   -1940.39401774 Ry
     Harris-Foulkes estimate   =   -1940.39401776 Ry
     estimated scf accuracy    <          6.3E-09 Ry

     total all-electron energy =     -7770.218495 Ry

     The total energy is the sum of the following terms:

     one-electron contribution =  -10657.01457742 Ry
     hartree contribution      =    5414.18118617 Ry
     xc contribution           =    -430.78727939 Ry
     ewald contribution        =    4376.67996071 Ry
     DFT-D3 Dispersion         =      -0.27035807 Ry
     one-center paw contrib.   =    -643.18294975 Ry

     total magnetization       =     1.00 Bohr mag/cell
[...]
     atom:   55    charge:    2.6662    magn:    0.0002    constr:    0.0000
     atom:   56    charge:    2.6690    magn:   -0.0000    constr:    0.0000
     atom:   57    charge:    2.6708    magn:   -0.0001    constr:    0.0000
     atom:   58    charge:    2.6726    magn:    0.0034    constr:    0.0000
     atom:   59    charge:    2.6608    magn:    0.0241    constr:    0.0000
     atom:   60    charge:    2.6660    magn:    0.0002    constr:    0.0000
     atom:   61    charge:    2.6709    magn:    0.0106    constr:    0.0000
     atom:   62    charge:    2.6671    magn:    0.0053    constr:    0.0000
     atom:   63    charge:    2.6662    magn:    0.0002    constr:    0.0000
     atom:   64    charge:    2.6744    magn:    0.0003    constr:    0.0000
     atom:   65    charge:    2.6746    magn:    0.0041    constr:    0.0000
     atom:   66    charge:    2.6780    magn:    0.0004    constr:    0.0000
     atom:   67    charge:    1.7240    magn:    0.0431    constr:    0.0000
     atom:   68    charge:    2.6568    magn:    0.0750    constr:    0.0000
     atom:   69    charge:    2.6709    magn:    0.0106    constr:    0.0000
     atom:   70    charge:    2.6747    magn:    0.0001    constr:    0.0000
     atom:   71    charge:    2.6739    magn:    0.0003    constr:    0.0000
     atom:   72    charge:    2.6689    magn:   -0.0001    constr:    0.0000
     atom:   73    charge:    2.6647    magn:    0.0102    constr:    0.0000
     atom:   74    charge:    2.6291    magn:    0.1095    constr:    0.0000
     atom:   75    charge:    1.7238    magn:    0.0431    constr:    0.0000
     atom:   76    charge:    2.6660    magn:    0.0002    constr:    0.0000
     atom:   77    charge:    2.6729    magn:    0.0034    constr:    0.0000
     atom:   78    charge:    2.6718    magn:    0.0002    constr:    0.0000
     atom:   79    charge:    2.6674    magn:    0.0001    constr:    0.0000
     atom:   80    charge:    2.6613    magn:    0.0049    constr:    0.0000
     atom:   81    charge:    2.6648    magn:    0.0102    constr:    0.0000
     atom:   82    charge:    2.6780    magn:    0.0004    constr:    0.0000
     atom:   83    charge:    2.6608    magn:    0.0241    constr:    0.0000
     atom:   84    charge:    2.6635    magn:    0.0047    constr:    0.0000
     atom:   85    charge:    2.6704    magn:    0.0005    constr:    0.0000
     atom:   86    charge:    2.6699    magn:    0.0001    constr:    0.0000
     atom:   87    charge:    2.6674    magn:    0.0001    constr:    0.0000
     atom:   88    charge:    2.6689    magn:   -0.0001    constr:    0.0000
     atom:   89    charge:    2.6746    magn:    0.0041    constr:    0.0000
     atom:   90    charge:    2.6726    magn:    0.0034    constr:    0.0000
     atom:   91    charge:    2.6735    magn:    0.0003    constr:    0.0000
     atom:   92    charge:    2.6755    magn:    0.0001    constr:    0.0000
     atom:   93    charge:    2.6704    magn:    0.0005    constr:    0.0000
     atom:   94    charge:    2.6718    magn:    0.0002    constr:    0.0000
     atom:   95    charge:    2.6739    magn:    0.0003    constr:    0.0000
     atom:   96    charge:    2.6744    magn:    0.0003    constr:    0.0000
     atom:   97    charge:    2.6708    magn:   -0.0001    constr:    0.0000
     atom:   98    charge:    2.6751    magn:    0.0004    constr:    0.0000

     total cpu time spent up to now is     5195.2 secs

     End of self-consistent calculation

 ------ SPIN UP ------------


          k = 0.0000 0.0000 0.0000 ( 77359 PWs)   bands (ev):

   -22.0126 -21.6836 -21.4208 -21.4024 -21.3637 -21.2989 -21.2744 -20.9089
   -20.6727 -20.6600 -20.6136 -20.5490 -20.5474 -20.4342 -20.2992 -20.2874
   -20.2612 -20.1353 -20.0802 -19.6157 -19.4540 -19.4316 -19.3932 -19.3895
   -19.3749 -19.3660 -19.3534 -19.3114 -19.2867 -19.1779 -19.1546 -19.0339
   -18.9708 -18.9630 -18.9310 -18.7673 -18.7664 -18.5639 -18.5437 -18.5392
   -18.5064 -18.4611 -18.4058 -18.3749 -18.3621 -18.3134 -18.3000 -16.8131
   -14.7623 -13.1920 -12.7938 -12.7879 -12.7431 -12.7190 -12.7151 -12.6340
   -12.5839 -12.5268 -12.5209 -12.4562 -12.3941 -12.1670 -12.0611 -12.0560
   -12.0158 -11.9819 -11.9326 -11.5823 -11.4226 -11.4211 -11.4071 -11.3946
   -11.3603 -11.3494 -11.3342 -11.3006 -11.2941 -11.0834 -11.0013 -10.8859
   -10.7239 -10.7079 -10.6638 -10.6282 -10.4704 -10.0768 -10.0195 -10.0043
    -9.9337  -9.8787  -9.7919  -9.4215  -9.3721  -9.3457  -9.3016  -9.2892
    -9.2790  -9.2048  -9.0785  -9.0302  -8.9620  -8.9085  -8.9063  -8.8977
    -8.8975  -8.8878  -8.8714  -8.8569  -8.8542  -8.8323  -8.8213  -8.8112
    -8.8012  -8.7713  -8.7587  -8.7251  -8.7137  -8.7034  -8.6434  -8.6204
    -8.4622  -8.4343  -8.2414  -8.1738  -8.1717  -8.0739  -8.0677  -8.0363
    -7.8428  -7.8352  -7.8069  -7.7847  -7.7254  -7.7135  -7.5834  -7.5133
    -7.4990  -7.4859  -7.4856  -7.4565  -7.4304  -7.3924  -7.3777  -7.3442
    -7.3382  -7.3155  -7.3150  -7.2250  -7.2227  -7.2222  -7.1508  -7.0368
    -7.0098  -6.9704  -6.8752  -6.7937  -6.6166  -6.4797  -6.3369  -6.1887
    -6.1777  -6.1539  -6.1271  -6.1018  -6.0627  -6.0568  -6.0508  -6.0296
    -6.0284  -6.0235  -6.0016  -5.9472  -5.8782  -5.7843  -5.7721  -5.6391
    -5.5387  -5.4473  -5.4451  -5.4382  -5.3055  -5.2237  -4.9631  -4.9550
    -4.8167  -4.8041  -4.7719  -4.7404  -4.6724  -4.6535  -4.5591  -4.5173
    -4.5012  -4.4730  -4.3886  -3.0800   0.0518   0.1783   0.6497   0.6631
     0.7079   0.7216   0.7272   0.7408   0.7735   0.7967   0.7980   0.7988
     0.8172   0.8332   0.8549   0.8695   0.8761   0.9136   0.9442   0.9449
     1.0290   1.1411   1.2062   1.2429   1.2768   1.3063   1.3139   1.3243
     1.3290   1.3422   1.3507   1.3751   1.4141   1.4282   1.4331   1.4409
     1.4495   1.4653   1.4901   1.8839   2.0612   2.0905   2.0938   2.1158
     2.1183   2.1463   2.1504   2.2115   2.2575

 ------ SPIN DOWN ----------


          k = 0.0000 0.0000 0.0000 ( 77359 PWs)   bands (ev):

   -21.8908 -21.6512 -21.4177 -21.3978 -21.3592 -21.2721 -21.2667 -20.8759
   -20.6663 -20.6481 -20.6100 -20.5416 -20.5368 -20.4257 -20.2938 -20.2795
   -20.2381 -20.1082 -20.0736 -19.5840 -19.4454 -19.4243 -19.3888 -19.3832
   -19.3707 -19.3624 -19.3402 -19.2906 -19.2827 -19.1609 -19.1437 -19.0259
   -18.9625 -18.9577 -18.9057 -18.7609 -18.7513 -18.5566 -18.5362 -18.5248
   -18.4964 -18.4547 -18.3987 -18.3646 -18.3565 -18.3021 -18.2717 -16.6222
   -14.6564 -13.1517 -12.7903 -12.7814 -12.7407 -12.7171 -12.7135 -12.6299
   -12.5792 -12.5227 -12.5171 -12.4444 -12.3882 -12.1597 -12.0561 -12.0516
   -12.0126 -11.9736 -11.9236 -11.5691 -11.4143 -11.4106 -11.4046 -11.3869
   -11.3585 -11.3406 -11.3291 -11.2905 -11.2859 -11.0632 -10.9887 -10.8784
   -10.7205 -10.7067 -10.6579 -10.6205 -10.4651 -10.0647 -10.0122  -9.9949
    -9.9228  -9.8647  -9.7817  -9.4129  -9.3365  -9.3255  -9.2938  -9.2844
    -9.2754  -9.2025  -9.0674  -8.9486  -8.9191  -8.9047  -8.9019  -8.8948
    -8.8919  -8.8818  -8.8613  -8.8534  -8.8481  -8.8205  -8.8181  -8.8051
    -8.7919  -8.7657  -8.7561  -8.7125  -8.6980  -8.6334  -8.6159  -8.6121
    -8.4577  -8.4166  -8.2387  -8.1713  -8.1699  -8.0641  -8.0512  -7.9184
    -7.8302  -7.8092  -7.7986  -7.7778  -7.7003  -7.6885  -7.5752  -7.5057
    -7.4927  -7.4818  -7.4552  -7.4368  -7.4294  -7.3890  -7.3723  -7.3337
    -7.3179  -7.3099  -7.2766  -7.2142  -7.2106  -7.1622  -7.1357  -7.0343
    -6.9962  -6.9673  -6.8567  -6.7770  -6.6063  -6.4717  -6.2344  -6.1827
    -6.1720  -6.1473  -6.1090  -6.0872  -6.0508  -6.0430  -6.0387  -6.0218
    -6.0149  -6.0028  -5.9445  -5.9378  -5.8176  -5.7646  -5.7626  -5.6311
    -5.5101  -5.4371  -5.4312  -5.3917  -5.2474  -5.1985  -4.9260  -4.9189
    -4.7829  -4.7791  -4.7532  -4.7193  -4.6565  -4.6060  -4.5415  -4.5070
    -4.4743  -4.4524  -4.0635  -2.8685   0.1799   0.2023   0.6697   0.6830
     0.7089   0.7273   0.7418   0.7443   0.7754   0.7969   0.7989   0.8037
     0.8181   0.8345   0.8584   0.8769   0.8799   0.9241   0.9507   0.9520
     1.0344   1.1632   1.2185   1.2557   1.2779   1.3066   1.3140   1.3288
     1.3343   1.3432   1.3587   1.3821   1.4180   1.4285   1.4330   1.4411
     1.4501   1.4656   1.4932   1.8856   2.0931   2.0941   2.1183   2.1188
     2.1264   2.1477   2.1555   2.2126   2.2704

     highest occupied, lowest unoccupied level (ev):    -3.0800   -4.0635

!    total energy              =   -1940.39410527 Ry
     Harris-Foulkes estimate   =   -1940.39410527 Ry
     estimated scf accuracy    <          4.4E-11 Ry

     total all-electron energy =     -7770.218582 Ry

     The total energy is the sum of the following terms:

     one-electron contribution =  -10656.68519782 Ry
     hartree contribution      =    5414.01543568 Ry
     xc contribution           =    -430.78444828 Ry
     ewald contribution        =    4376.51332663 Ry
     DFT-D3 Dispersion         =      -0.27035250 Ry
     one-center paw contrib.   =    -643.18286898 Ry

     total magnetization       =     1.00 Bohr mag/cell
     absolute magnetization    =     1.17 Bohr mag/cell

     convergence has been achieved in  20 iterations

     negative rho (up, down):  4.844E-01 4.051E-03

     Forces acting on atoms (cartesian axes, Ry/au):

     atom    1 type  1   force =    -0.00001470   -0.00001220    0.00000000
     atom    2 type  1   force =     0.00000680    0.00001834    0.00000000
     atom    3 type  1   force =    -0.00001681    0.00002811    0.00000000
     atom    4 type  1   force =    -0.00000776    0.00002145    0.00000000
     atom    5 type  1   force =     0.00002436   -0.00004398    0.00000000
     atom    6 type  1   force =     0.00005405   -0.00003815    0.00000000
     atom    7 type  1   force =    -0.00000093   -0.00000104    0.00000000
     atom    8 type  1   force =     0.00002540    0.00000679    0.00000000
     atom    9 type  1   force =     0.00000693    0.00000717    0.00000000
     atom   10 type  1   force =     0.00001269    0.00001461    0.00000000
     atom   11 type  1   force =    -0.00002325   -0.00001993    0.00000000
     atom   12 type  1   force =    -0.00002950    0.00001091    0.00000000
     atom   13 type  1   force =     0.00003456   -0.00002032    0.00000000
     atom   14 type  1   force =     0.00005970   -0.00002906    0.00000000
     atom   15 type  1   force =     0.00003324   -0.00000781    0.00000000
     atom   16 type  1   force =     0.00002271    0.00000704    0.00000000
     atom   17 type  1   force =     0.00002953   -0.00005326    0.00000000
     atom   18 type  1   force =    -0.00001452    0.00001794    0.00000000
     atom   19 type  1   force =    -0.00006406    0.00003888    0.00000000
     atom   20 type  1   force =    -0.00002159    0.00001931    0.00000000
     atom   21 type  1   force =     0.00005149   -0.00000025    0.00000000
     atom   22 type  1   force =     0.00003703   -0.00000679    0.00000000
     atom   23 type  1   force =    -0.00000487    0.00004873    0.00000000
     atom   24 type  1   force =     0.00003100    0.00001588    0.00000000
     atom   25 type  4   force =     0.00003420    0.00001006    0.00000000
     atom   26 type  1   force =    -0.00001356    0.00000661    0.00000000
     atom   27 type  1   force =     0.00001015    0.00002844    0.00000000
     atom   28 type  1   force =    -0.00002100   -0.00000501    0.00000000
     atom   29 type  1   force =    -0.00000824    0.00000427    0.00000000
     atom   30 type  1   force =    -0.00002612    0.00002370    0.00000000
     atom   31 type  1   force =    -0.00003657    0.00002365    0.00000000
     atom   32 type  1   force =     0.00000011   -0.00002606    0.00000000
     atom   33 type  1   force =     0.00005982   -0.00000012    0.00000000
     atom   34 type  1   force =    -0.00000570   -0.00002191    0.00000000
     atom   35 type  1   force =    -0.00003096   -0.00000165    0.00000000
     atom   36 type  1   force =    -0.00003396   -0.00000959    0.00000000
     atom   37 type  1   force =    -0.00001625    0.00000944    0.00000000
     atom   38 type  1   force =    -0.00003358    0.00001151    0.00000000
     atom   39 type  1   force =    -0.00004628   -0.00001925    0.00000000
     atom   40 type  1   force =     0.00000198   -0.00002299    0.00000000
     atom   41 type  1   force =    -0.00000512   -0.00001217    0.00000000
     atom   42 type  1   force =    -0.00001356   -0.00001786    0.00000000
     atom   43 type  1   force =    -0.00005200    0.00002895    0.00000000
     atom   44 type  1   force =    -0.00000963    0.00003326    0.00000000
     atom   45 type  1   force =    -0.00000889    0.00000554    0.00000000
     atom   46 type  1   force =     0.00002393   -0.00002800    0.00000000
     atom   47 type  1   force =     0.00002263   -0.00002444    0.00000000
     atom   48 type  1   force =     0.00000365   -0.00002774    0.00000000
     atom   49 type  1   force =     0.00000139    0.00001619    0.00000000
     atom   50 type  2   force =    -0.00000916    0.00001750    0.00000000
     atom   51 type  2   force =     0.00003997   -0.00003808    0.00000000
     atom   52 type  2   force =     0.00000643   -0.00001622    0.00000000
     atom   53 type  2   force =    -0.00003096    0.00000183    0.00000000
     atom   54 type  2   force =    -0.00000330   -0.00003382    0.00000000
     atom   55 type  2   force =    -0.00000590   -0.00004130    0.00000000
     atom   56 type  2   force =    -0.00002847    0.00001732    0.00000000
     atom   57 type  2   force =    -0.00000680    0.00003691    0.00000000
     atom   58 type  2   force =     0.00001115    0.00001023    0.00000000
     atom   59 type  2   force =     0.00003789   -0.00006732    0.00000000
     atom   60 type  2   force =    -0.00001153   -0.00000791    0.00000000
     atom   61 type  2   force =    -0.00003883   -0.00001362    0.00000000
     atom   62 type  2   force =     0.00003284   -0.00001985    0.00000000
     atom   63 type  2   force =     0.00003248    0.00002654    0.00000000
     atom   64 type  2   force =     0.00001904    0.00005477    0.00000000
     atom   65 type  2   force =    -0.00003723    0.00000523    0.00000000
     atom   66 type  2   force =    -0.00000049   -0.00005565    0.00000000
     atom   67 type  3   force =     0.00005765   -0.00004343    0.00000000
     atom   68 type  2   force =    -0.00004521    0.00001937    0.00000000
     atom   69 type  2   force =    -0.00001159    0.00003962    0.00000000
     atom   70 type  2   force =     0.00002597    0.00002104    0.00000000
     atom   71 type  2   force =     0.00001359   -0.00000826    0.00000000
     atom   72 type  2   force =    -0.00006857   -0.00001763    0.00000000
     atom   73 type  2   force =    -0.00008940    0.00001537    0.00000000
     atom   74 type  2   force =    -0.00002124    0.00000524    0.00000000
     atom   75 type  5   force =     0.00005816   -0.00005363    0.00000000
     atom   76 type  2   force =    -0.00000320    0.00001662    0.00000000
     atom   77 type  2   force =    -0.00001888    0.00002794    0.00000000
     atom   78 type  2   force =    -0.00000038   -0.00001654    0.00000000
     atom   79 type  2   force =    -0.00000882   -0.00001772    0.00000000
     atom   80 type  2   force =    -0.00004170    0.00002390    0.00000000
     atom   81 type  2   force =    -0.00005526    0.00006522    0.00000000
     atom   82 type  2   force =     0.00005169    0.00002258    0.00000000
     atom   83 type  2   force =     0.00007870    0.00000646    0.00000000
     atom   84 type  2   force =     0.00001716    0.00000643    0.00000000
     atom   85 type  2   force =     0.00000031   -0.00002690    0.00000000
     atom   86 type  2   force =     0.00002552   -0.00001415    0.00000000
     atom   87 type  2   force =     0.00001099    0.00001637    0.00000000
     atom   88 type  2   force =    -0.00001852    0.00006722    0.00000000
     atom   89 type  2   force =    -0.00002111    0.00002844    0.00000000
     atom   90 type  2   force =     0.00000043   -0.00001262    0.00000000
     atom   91 type  2   force =     0.00005439   -0.00001286    0.00000000
     atom   92 type  2   force =     0.00000741   -0.00000260    0.00000000
     atom   93 type  2   force =     0.00002475    0.00001482    0.00000000
     atom   94 type  2   force =     0.00001587    0.00000912    0.00000000
     atom   95 type  2   force =     0.00001517   -0.00000810    0.00000000
     atom   96 type  2   force =    -0.00003714   -0.00004426    0.00000000
     atom   97 type  2   force =    -0.00003377   -0.00001227    0.00000000
     atom   98 type  2   force =    -0.00001800    0.00000143    0.00000000

     Total force =     0.000406     Total SCF correction =     0.000013


     Computing stress (Cartesian axis) and pressure


     negative rho (up, down):  4.844E-01 4.051E-03
          total   stress  (Ry/bohr**3)                   (kbar)     P=   -0.16
   0.00000007  -0.00000000   0.00000000          0.01     -0.00      0.00
  -0.00000000   0.00000006   0.00000000         -0.00      0.01      0.00
   0.00000000   0.00000000  -0.00000339          0.00      0.00     -0.50


     Writing output data file C2Cn.save/
 
     init_run     :      8.42s CPU      8.59s WALL (       2 calls)
     electrons    :   4960.61s CPU   4996.98s WALL (      11 calls)
     update_pot   :     26.57s CPU     26.68s WALL (       9 calls)
     forces       :     38.27s CPU     38.86s WALL (      11 calls)
     stress       :    126.68s CPU    127.29s WALL (      11 calls)

     Called by init_run:
     wfcinit      :      3.36s CPU      3.45s WALL (       2 calls)
     potinit      :      1.73s CPU      1.75s WALL (       2 calls)
     hinit0       :      2.51s CPU      2.54s WALL (       2 calls)

     Called by electrons:
     c_bands      :   4830.23s CPU   4861.23s WALL (     123 calls)
     sum_band     :     67.68s CPU     68.99s WALL (     123 calls)
     v_of_rho     :     20.99s CPU     21.36s WALL (     125 calls)
     newd         :      8.71s CPU      9.37s WALL (     125 calls)
     PAW_pot      :     23.60s CPU     23.75s WALL (     134 calls)
     mix_rho      :      1.91s CPU      1.98s WALL (     123 calls)

     Called by c_bands:
     init_us_2    :      1.86s CPU      1.91s WALL (     558 calls)
     rcgdiagg     :   4709.64s CPU   4738.74s WALL (     274 calls)
     wfcrot       :    120.05s CPU    121.54s WALL (     238 calls)

     Called by sum_band:
     sum_band:bec :      0.10s CPU      0.10s WALL (     264 calls)
     addusdens    :      5.79s CPU      6.55s WALL (     123 calls)

     Called by *cgdiagg:
     h_psi        :   1944.68s CPU   1958.40s WALL (  212882 calls)
     s_psi        :    477.93s CPU    482.39s WALL (  425526 calls)
     rdiaghg      :      3.90s CPU      3.98s WALL (     238 calls)

     Called by h_psi:
     h_psi:pot    :   1943.09s CPU   1956.80s WALL (  212882 calls)
     h_psi:calbec :    890.21s CPU    895.43s WALL (  212882 calls)
     vloc_psi     :    779.94s CPU    786.58s WALL (  212882 calls)
     add_vuspsi   :    271.47s CPU    273.63s WALL (  212882 calls)
     hs_1psi      :   2089.31s CPU   2104.10s WALL (  212644 calls)
     s_1psi       :    987.40s CPU    992.73s WALL (  212644 calls)

     General routines
     calbec       :   1673.44s CPU   1682.86s WALL (  425900 calls)
     fft          :     22.98s CPU     23.17s WALL (    2493 calls)
     ffts         :      0.96s CPU      0.96s WALL (     246 calls)
     fftw         :    778.43s CPU    785.08s WALL (  514678 calls)
 
     Parallel routines
     fft_scatt_xy :     60.54s CPU     60.93s WALL (  517417 calls)
     fft_scatt_yz :    311.79s CPU    314.77s WALL (  517417 calls)
 
     PWSCF        :      1h26m CPU      1h26m WALL

 
   This run was terminated on:  16:19:25   1Jul2021            

=------------------------------------------------------------------------------=
   JOB DONE.
=------------------------------------------------------------------------------=
